
units lj                  # Use reduced LJ style units
atom_style atomic         # Uncharged point particles
atom_modify map hash      # Needed for indexing of clusters etc
                          # Used to be able to find where atoms are in relation to each other.

# Define a lattice with which to populate the simulation cell. With units
# set to 'lj' the second argument to the lattice command is the reduced
# density rho* and the spacings are multiples of that required to acheive
# that density. Also define a simulation cell called 'box' in lattice units
# and fill it with atoms. Here we're creating a box which is ten lattice
# constants in each direction.
lattice fcc 1.0 spacing 1 1 1                 # All equal sizes - gives the right reduced density.
Lattice spacing in x,y,z = 1.5874011 1.5874011 1.5874011

region box block 0 6 0 6 0 6 units lattice # Defines a region, "box", in lattice units
create_box 1 box                              # Creates a simulation box as specified above,
Created orthogonal box = (0.0000000 0.0000000 0.0000000) to (9.5244063 9.5244063 9.5244063)
  2 by 2 by 3 MPI processor grid
                                              # with one type of atom
create_atoms 1 box                            # Creates particles on lattice points
Created 864 atoms
  using lattice units in orthogonal box = (0.0000000 0.0000000 0.0000000) to (9.5244063 9.5244063 9.5244063)
  create_atoms CPU = 0.001 seconds


# Set the mass of the first (and only) atom type.
mass 1 1.0

# Lennard-Jones interactions between particles, 3.5 sigma cut-off. Apply
# long range tail corrections to energy and pressure and set all coefficients
# to unity since we work in reduced units here. Note that this doesn't shift
# the potential such that it goes to zero at the cutoff. That would require
# pair_modify('shift', 'yes').
pair_style lj/cut  3.5      # non-GPU version
pair_modify tail  yes
pair_coeff 1  1  1.0  1.0   # Intearaction between 1 and 1 set with epsilon = 1 and sigma = 1

write_data data.*
System init for write_data ...
Neighbor list info ...
  update every 1 steps, delay 10 steps, check yes
  max neighbors/atom: 2000, page size: 100000
  master list distance cutoff = 3.8
  ghost atom cutoff = 3.8
  binsize = 1.9, bins = 6 6 6
  1 neighbor lists, perpetual/occasional/extra = 1 0 0
  (1) pair lj/cut, perpetual
      attributes: half, newton on
      pair build: half/bin/atomonly/newton
      stencil: half/bin/3d
      bin: standard

#############################
#   M E L T   S Y S T E M   #
#############################

velocity all create 2.4 2750902 mom yes dist gaussian # Assign velocities
                                                    # Temperature 2.4, random number seed, zero linear momentum
						                                                        # Gaussian distribution

timestep 0.002   # simulation timestep
thermo 100       # output thermodynamic data every 100 steps

# Define a fix  in this case with index 1 applied to all
# particles in the simulation. This fix is for simulations
# in the anisotropic NPT ensemble. Note that we use the MTK
# correction.
fix 1 all npt temp 2.4 2.4 0.1 iso 5.68 5.68 0.5 mtk yes tchain 5 pchain 5 # Use NPT ensemble
                                                                         # Set temperature and pressure and damping
                                                                         # Numbers of thermostats in chain and in barostat
run 1000         # run for 10000 steps
Per MPI rank memory allocation (min/avg/max) = 3.633 | 3.633 | 3.634 Mbytes
Step Temp E_pair E_mol TotEng Press Volume 
       0          2.4   -8.3859253            0    -4.790092     -2.24275          864 
     100    1.3007594   -6.4407842            0   -4.4919034    5.3582762    891.69205 
     200    1.5828213   -6.0796178            0   -3.7081338    6.4338598    907.46239 
     300    1.7629056     -5.73851            0   -3.0972122    5.5953229    954.02439 
     400    1.8733232   -5.2785237            0   -2.4717912    6.0585808    994.36537 
     500      2.02574   -4.9360708            0   -1.9009777    5.7478153    1042.8978 
     600    2.2112838   -4.6895875            0   -1.3765009    5.7138268    1079.0368 
     700    2.3146746   -4.4629638            0  -0.99497044    5.6088298    1118.0222 
     800    2.4734008     -4.39503            0   -0.6892229    5.7937797    1123.7282 
     900    2.4206618   -4.2767239            0  -0.64993368    5.5531987    1146.9555 
    1000    2.3618098   -4.2459295            0  -0.70731524    5.7000582    1143.3852 
Loop time of 0.181694 on 12 procs for 1000 steps with 864 atoms

Performance: 951052.146 tau/day, 5503.774 timesteps/s
99.2% CPU use with 12 MPI tasks x no OpenMP threads

MPI task timing breakdown:
Section |  min time  |  avg time  |  max time  |%varavg| %total
---------------------------------------------------------------
Pair    | 0.067746   | 0.076981   | 0.089152   |   2.1 | 42.37
Neigh   | 0.011972   | 0.01288    | 0.014293   |   0.6 |  7.09
Comm    | 0.061142   | 0.074481   | 0.084565   |   2.4 | 40.99
Output  | 0.00018853 | 0.00019398 | 0.00022401 |   0.0 |  0.11
Modify  | 0.015068   | 0.015555   | 0.015929   |   0.2 |  8.56
Other   |            | 0.001602   |            |       |  0.88

Nlocal:        72.0000 ave          80 max          66 min
Histogram: 2 1 2 2 1 0 2 0 0 2
Nghost:        1314.75 ave        1327 max        1295 min
Histogram: 1 0 0 2 3 0 0 1 2 3
Neighs:        6211.67 ave        7136 max        5326 min
Histogram: 2 0 0 2 1 4 1 0 0 2

Total # of neighbors = 74540
Ave neighs/atom = 86.273148
Neighbor list builds = 80
Dangerous builds = 2

# Equilibrate just above the melting temperature to avoid step fn in T

fix 1 all npt temp 1.25 1.25 0.1 iso 5.68 5.68 0.5 mtk yes tchain 5 pchain 5
run 1000
Per MPI rank memory allocation (min/avg/max) = 3.634 | 3.634 | 3.634 Mbytes
Step Temp E_pair E_mol TotEng Press Volume 
    1000    2.3618098   -4.2459295            0  -0.70731524    5.7000582    1143.3852 
    1100    1.8617945   -4.5967525            0    -1.807293    5.9593679    1083.5566 
    1200      1.66126   -5.0091582            0   -2.5201524    5.9308167    1028.0056 
    1300    1.4533368   -5.3154554            0   -3.1379734    5.5185254    997.93023 
    1400    1.3100587   -5.5224566            0    -3.559643    5.2858775     978.0358 
    1500    1.3306301   -5.7450087            0   -3.7513736    5.2687861    956.68836 
    1600    1.2302857    -5.777427            0   -3.9341343     5.385203    950.58576 
    1700    1.2545134   -5.8251615            0   -3.9455694    5.6370291    940.07281 
    1800    1.2669685   -5.8434457            0   -3.9451925    6.1076728    931.13358 
    1900    1.2975362   -5.8185374            0   -3.8744858    5.5765884    942.23221 
    2000    1.2225624   -5.8503078            0   -4.0185867    5.1330896    948.19804 
Loop time of 0.158308 on 12 procs for 1000 steps with 864 atoms

Performance: 1091540.699 tau/day, 6316.786 timesteps/s
99.8% CPU use with 12 MPI tasks x no OpenMP threads

MPI task timing breakdown:
Section |  min time  |  avg time  |  max time  |%varavg| %total
---------------------------------------------------------------
Pair    | 0.069933   | 0.077065   | 0.085848   |   1.6 | 48.68
Neigh   | 0.0098799  | 0.010567   | 0.011381   |   0.4 |  6.68
Comm    | 0.045185   | 0.054849   | 0.0624     |   2.1 | 34.65
Output  | 0.00016726 | 0.0001719  | 0.00019648 |   0.0 |  0.11
Modify  | 0.013529   | 0.013869   | 0.014174   |   0.2 |  8.76
Other   |            | 0.001786   |            |       |  1.13

Nlocal:        72.0000 ave          79 max          65 min
Histogram: 1 1 0 4 0 1 1 3 0 1
Nghost:        1466.08 ave        1476 max        1447 min
Histogram: 1 1 0 0 2 0 0 4 1 3
Neighs:        7466.67 ave        8131 max        6694 min
Histogram: 1 0 2 0 3 1 3 0 0 2

Total # of neighbors = 89600
Ave neighs/atom = 103.70370
Neighbor list builds = 67
Dangerous builds = 0


# Small amount of linear quench

fix 1 all npt temp 1.25 ${temp} 0.1 iso 5.68 5.68 0.5 mtk yes tchain 5 pchain 5
fix 1 all npt temp 1.25 0.9 0.1 iso 5.68 5.68 0.5 mtk yes tchain 5 pchain 5
run 2000
Per MPI rank memory allocation (min/avg/max) = 3.634 | 3.634 | 3.634 Mbytes
Step Temp E_pair E_mol TotEng Press Volume 
    2000    1.2225624   -5.8503078            0   -4.0185867    5.1330896    948.19804 
    2100    1.2545973   -5.8613559            0   -3.9816381    5.4182246    941.43669 
    2200    1.2293368   -5.9055054            0   -4.0636344    5.8233375    929.21772 
    2300    1.1869197    -5.913394            0    -4.135075    6.2957918    920.04922 
    2400     1.190109   -5.9614217            0   -4.1783244      5.93967     921.8574 
    2500    1.1424863   -5.9591446            0   -4.2473987    5.6910491    924.32312 
    2600    1.1188488   -6.0050895            0   -4.3287587    5.6255756    921.25738 
    2700    1.1034074   -5.9894617            0   -4.3362662    5.6873783    921.42783 
    2800    1.0784452   -6.0743975            0    -4.458602    5.7003758    914.30038 
    2900    1.1119285   -6.1021401            0   -4.4361778    5.7993372    910.39023 
    3000    1.0879617   -6.1764112            0   -4.5463575    5.9220733    902.01172 
    3100    1.0994495   -6.1856859            0   -4.5384204    5.7600396     904.6444 
    3200    1.0312766   -6.2234927            0   -4.6783681    5.4958894    904.59199 
    3300     1.037449   -6.2339488            0   -4.6795765    5.6191132    901.34841 
    3400    1.0375246   -6.2927947            0   -4.7383091    5.6022835    896.92564 
    3500   0.98754648   -6.2550879            0   -4.7754826    5.4343364    900.91058 
    3600    0.9294993   -6.2276138            0   -4.8349786    5.4805527     902.7584 
    3700   0.95030678   -6.3060796            0   -4.8822693    5.5695103     895.2224 
    3800   0.96650768   -6.3118907            0   -4.8638071    6.1080908    886.74687 
    3900   0.93969704   -6.3567635            0   -4.9488494    6.0414385    883.93816 
    4000   0.88058234   -6.3954653            0   -5.0761206    5.8324914    882.65451 
Loop time of 0.342354 on 12 procs for 2000 steps with 864 atoms

Performance: 1009480.154 tau/day, 5841.899 timesteps/s
99.9% CPU use with 12 MPI tasks x no OpenMP threads

MPI task timing breakdown:
Section |  min time  |  avg time  |  max time  |%varavg| %total
---------------------------------------------------------------
Pair    | 0.15119    | 0.16673    | 0.18223    |   2.3 | 48.70
Neigh   | 0.017454   | 0.01853    | 0.020368   |   0.6 |  5.41
Comm    | 0.10628    | 0.12309    | 0.13916    |   2.8 | 35.95
Output  | 0.00039532 | 0.00040827 | 0.0004736  |   0.0 |  0.12
Modify  | 0.028642   | 0.029295   | 0.029907   |   0.2 |  8.56
Other   |            | 0.004295   |            |       |  1.25

Nlocal:        72.0000 ave          77 max          68 min
Histogram: 1 0 3 2 1 1 3 0 0 1
Nghost:        1558.75 ave        1578 max        1541 min
Histogram: 3 0 0 1 3 1 1 1 0 2
Neighs:        8066.50 ave        9226 max        7277 min
Histogram: 2 2 1 2 0 2 1 1 0 1

Total # of neighbors = 96798
Ave neighs/atom = 112.03472
Neighbor list builds = 114
Dangerous builds = 0

#############################
# F R E E Z E  S Y S T E M  #
#############################

# Define solid atoms. This closely follows ten Wolde  Ruiz-Montero and Frenkel  Faraday Discuss  1996  104  93-110
# Compute components of the per-atom q6 vector
compute q6 all orientorder/atom degrees 1 6 components 6 nnn NULL cutoff 1.3 # compute the Q6 parameter.
                                                                             # Use all neighbours within 1.3 unit cell.

# get number of connections
compute coord_number all coord/atom orientorder q6 0.5

# An atom is solid if it has 8 or more connections (of a possible 14)
variable is_solid atom c_coord_number>=8
group solid dynamic all var is_solid    # Must be dynamic to update
dynamic group solid defined

# do clustering
compute cluster solid cluster/atom 1.3 # Create a cluster where all atoms within are solid and max 1.3 units from another member

# define chunks one chunk per cluster
compute clus_chunks solid chunk/atom c_cluster nchunk every compress yes  # Says which atoms are in which chunk

# count the size of each chunk
compute size_chunks solid property/chunk clus_chunks count


# Find the maximum entry in the vector of chunk sizes
variable max_n equal max(c_size_chunks)


# Thermo style which includes this variable
# thermo_style custom step temp pe vol v_max_n

thermo ${N}  # Print the thermo information every 100 steps
thermo 100  

# Reset the npt fix at a lower temperature (below freezing)

compute myRDF all rdf 100
fix 2 all ave/time 1 50 100 c_myRDF[*] file pcf.rdf mode vector


compute msd all msd com yes
variable twopoint equal c_msd[4]/6/(step*dt+1.0e-6)
fix 9 all vector 10 c_msd[4]
variable fit equal slope(f_9)/6/(10*dt)
thermo_style custom step temp pe c_msd[4] v_twopoint v_fit v_max_n press vol density


fix 1  all npt temp  ${temp} ${temp}  0.1  iso  5.68  5.68  0.5  mtk yes tchain  5  pchain  5
fix 1  all npt temp  0.9 ${temp}  0.1  iso  5.68  5.68  0.5  mtk yes tchain  5  pchain  5
fix 1  all npt temp  0.9 0.9  0.1  iso  5.68  5.68  0.5  mtk yes tchain  5  pchain  5

dump dmp2 all dcd ${N} traj.dcd
dump dmp2 all dcd 100 traj.dcd
dump dmp3 all dcd ${N} traj_unwrap.dcd
dump dmp3 all dcd 100 traj_unwrap.dcd
dump_modify dmp3 unwrap yes


# fix rnuntil all halt ${N} v_max_n >= 3980 error soft message no   # Stop when solidified

run 100000 # 5000000  # Run for this many steps
Neighbor list info ...
  update every 1 steps, delay 10 steps, check yes
  max neighbors/atom: 2000, page size: 100000
  master list distance cutoff = 3.8
  ghost atom cutoff = 3.8
  binsize = 1.9, bins = 6 6 6
  5 neighbor lists, perpetual/occasional/extra = 1 4 0
  (1) pair lj/cut, perpetual
      attributes: half, newton on
      pair build: half/bin/atomonly/newton
      stencil: half/bin/3d
      bin: standard
  (2) compute orientorder/atom, occasional
      attributes: full, newton on
      pair build: full/bin/atomonly
      stencil: full/bin/3d
      bin: standard
  (3) compute coord/atom, occasional
      attributes: full, newton on
      pair build: full/bin/atomonly
      stencil: full/bin/3d
      bin: standard
  (4) compute cluster/atom, occasional
      attributes: full, newton on
      pair build: full/bin/atomonly
      stencil: full/bin/3d
      bin: standard
  (5) compute rdf, occasional, copy from (1)
      attributes: half, newton on
      pair build: copy
      stencil: none
      bin: none
Per MPI rank memory allocation (min/avg/max) = 9.698 | 9.703 | 9.706 Mbytes
Step Temp PotEng c_msd[4] v_twopoint v_fit v_max_n Press Volume Density 
    4000   0.88058234   -6.3954653            0            0 8.3333333e+20            5    5.8324914    882.65451   0.97886545 
    4100   0.94128367     -6.38314  0.041985286 0.00085335936  0.037498819           17    5.9318614    882.91085   0.97858125 
    4200   0.87652064   -6.4037582  0.079081693  0.001569081  0.035238447            8    5.6518427    885.52087   0.97569693 
    4300   0.87306728   -6.4802404   0.10411887 0.0020178073   0.03033996            5    4.9170471    889.80147   0.97100312 
    4400   0.92117643   -6.5132169   0.12425988 0.0023534065  0.026023845           16    4.9186667    887.99151   0.97298227 
    4500   0.83512003   -6.4576731   0.15190824 0.0028131152  0.024167845           15    5.3089734     884.9017   0.97637964 
    4600   0.90017714   -6.4819398   0.17011399 0.0030817749  0.022870461            6    5.1800846    885.85019   0.97533421 
    4700    0.8622554    -6.439046   0.19040704 0.0033760111  0.021685684           13    5.3106116     887.1265     0.973931 
    4800   0.87259413   -6.4185452   0.21494613 0.0037317033  0.020949089            3    5.5935478     884.0269   0.97734583 
    4900   0.91868434   -6.4207797   0.23210867  0.003947426  0.020352367            1     5.300064    889.39837    0.9714432 
    5000   0.88821829   -6.4031224   0.25107141 0.0041845231   0.01974747            1    5.2790089    891.09415   0.96959452 
    5100   0.85104212   -6.4546739   0.26941498 0.0044022051  0.019208083            3    5.2950575    885.96852   0.97520394 
    5200   0.89362138   -6.4221769     0.287827 0.0046126117  0.018798009            5    5.5106171    886.24024   0.97490495 
    5300   0.92476907   -6.4506295   0.29133942  0.004580808  0.018219109            4    5.4588965    884.53735   0.97678182 
    5400   0.88814606   -6.4853641   0.31022905 0.0047874849  0.017575283            3    5.5257555    881.26824   0.98040524 
    5500   0.93580368   -6.4735009   0.31934571  0.004838571   0.01703909            1    5.5759193    881.87279   0.97973314 
    5600   0.86258562    -6.437878   0.34491725 0.0051326967   0.01661731            3    5.6701225    882.00126   0.97959044 
    5700   0.84483892    -6.474877   0.37320318 0.0054561864  0.016436224            3    5.4421112    881.31021   0.98035855 
    5800   0.90025806   -6.4920907   0.40243729 0.0057821444  0.016424627            5    5.0512067    887.24521   0.97380069 
    5900   0.92403759   -6.4444131   0.43167509 0.0060971053  0.016581557            7    5.2428044    888.10921   0.97285333 
    6000   0.86702163   -6.4584619    0.4443033 0.0061708786  0.016677447            2    5.5381979    882.33924   0.97921521 
    6100   0.86214811   -6.4520973   0.45130855 0.0061654168  0.016630194           21    5.4773335     883.8902   0.97749698 
    6200   0.92039461   -6.4389786   0.44766208  0.006016963  0.016411755            9     5.418709     886.6504   0.97445397 
    6300   0.90534643   -6.4859395   0.45814784 0.0060601561   0.01609295            9    5.5834961    880.57024   0.98118238 
    6400    0.9075139   -6.4629773   0.46912294 0.0061083711  0.015819971            4    5.6701324    880.21323   0.98158034 
    6500   0.88355656   -6.4547636   0.47680778 0.0061129198  0.015511957            9    5.7517227    879.74276   0.98210527 
    6600   0.87422393    -6.526328   0.49059804 0.0061944193  0.015212915            8    5.5690587      876.413   0.98583659 
    6700   0.86355177   -6.4698804   0.51013476 0.0063449592  0.014961338            4    5.7969125    878.15164   0.98388474 
    6800   0.91172635   -6.4978151   0.52467965 0.0064298972  0.014772111            9    5.4841678     880.5622   0.98119134 
    6900    0.8970563   -6.4489877   0.52546668 0.0063462155  0.014548533            2    5.6132592    881.72313   0.97989943 
    7000   0.91604336   -6.4644166   0.54278066 0.0064616741  0.014308842            6     5.326457    885.33273   0.97590428 
    7100   0.86303598   -6.4852315   0.55753975 0.0065438933  0.014123062           13    5.4788098    881.19763   0.98048379 
    7200    0.9051012   -6.5002622   0.56997901 0.0065969788  0.013938628           11     5.153682    884.87456   0.97640958 
    7300   0.84931895   -6.4155998   0.59179027 0.0067555963  0.013796296            3    5.2531173     889.3088   0.97154105 
    7400   0.88820131   -6.3943807   0.60988158 0.0068680354  0.013685401            2    5.1929458    893.34697   0.96714941 
    7500   0.86275089   -6.4543027   0.63417857 0.0070464281  0.013612692            3    5.1667811    888.54537   0.97237579 
    7600   0.86869244   -6.4599922   0.65380877 0.0071689554  0.013569388            4    5.4254232    883.36298   0.97808038 
    7700   0.90065958   -6.3874837   0.67225418 0.0072754776  0.013541998            5     5.615302    887.40657   0.97362363 
    7800    0.8935137   -6.4199772   0.67439528 0.0072050773  0.013502554            8    5.5025881    886.42437   0.97470245 
    7900   0.88995272   -6.5094316   0.67943805 0.0071670676  0.013438533            6    5.7993251     874.6495   0.98782427 
    8000   0.87876496   -6.4521177   0.68527423 0.0071382728  0.013350654            6    5.9964908    876.19241   0.98608478 
    8100   0.90081982   -6.4801223   0.70889489 0.0072931568  0.013265648            2    5.4490776    881.85318   0.97975493 
    8200   0.89726179   -6.4920502   0.73327088 0.0074519394  0.013223338            3    5.4127122    881.69246   0.97993352 
    8300    0.8829867   -6.5353202   0.73175377 0.0073469249  0.013155621            7    5.5414182    876.64754   0.98557284 
    8400   0.86580831   -6.4661224   0.76791133 0.0076181675  0.013105629            3    5.9712917     875.3698   0.98701143 
    8500   0.92869825   -6.4666794   0.79863772 0.0078297811   0.01312678            7    6.1102953    873.82623   0.98875494 
    8600   0.89455995   -6.4834785   0.81467289 0.0078941167  0.013152099            3    5.8314354     876.1933   0.98608378 
    8700   0.93573701   -6.4529749   0.81998546 0.0078542664  0.013160101           15    6.1054879    875.47862   0.98688875 
    8800   0.89075101   -6.4479567    0.8454389 0.0080060497  0.013177246            5    6.1076446    874.85497   0.98759226 
    8900   0.88768296   -6.5448806   0.84653845 0.0079263895  0.013172843           16     5.842187    871.53055   0.99135939 
    9000   0.87151209   -6.4522714   0.85590428 0.0079250392   0.01315179            7    6.1772478    873.41712   0.98921808 
    9100   0.88451561     -6.47961   0.86988407 0.0079659709  0.013126583           10    5.3002328    884.45301   0.97687496 
    9200   0.88795145   -6.4601574   0.87487069 0.0079245529  0.013085289            6    5.4387592    883.50993    0.9779177 
    9300   0.84459227   -6.4406633   0.88504287 0.0079304912  0.013039024           10    5.7198871    881.38657   0.98027362 
    9400   0.95513364   -6.4993424   0.90593197 0.0080313114  0.012995199            5     5.747908    877.00342   0.98517289 
    9500   0.89605083   -6.4395707   0.93214097 0.0081766747  0.012976629           14    6.0524016    876.78368    0.9854198 
    9600   0.92146488   -6.3769338   0.96342026 0.0083630227  0.012985848           16    6.1820747    880.15774   0.98164222 
    9700   0.92400693   -6.4571853   0.98375119 0.0084514702  0.013007381            8    5.9719464    877.08934   0.98507639 
    9800    0.9261916   -6.4713375    1.0012953 0.0085144154  0.013029215            8    6.3059437    870.16138   0.99291926 
    9900   0.91191561    -6.511877     1.023446 0.0086148649  0.013057729           23    5.9171327    872.46242   0.99030053 
   10000   0.94031701   -6.4951526       1.0383 0.0086524992  0.013086768           11    6.1499088    871.18735   0.99174994 
   10100   0.85827554   -6.5006179    1.0386149 0.0085694292   0.01310254            4    6.1506101    870.65238   0.99235931 
   10200   0.92318951   -6.5446063    1.0576769 0.0086411508  0.013103079            8    5.5483097    876.03979   0.98625657 
   10300    0.8855672   -6.4582626    1.0783155 0.0087242348  0.013110011           15    5.7989004    878.33291   0.98368169 
   10400   0.91100292   -6.4938975    1.1017321  0.008827981  0.013117896           11    5.1819003    884.68863   0.97661479 
   10500     0.907508   -6.5125648    1.1323085 0.0089865748   0.01314088            7    5.4359463    879.61683   0.98224587 
   10600   0.90260235   -6.4911306    1.1594232 0.0091149616  0.013180593            6    5.5765771    879.80966   0.98203059 
   10700   0.88243245   -6.3975974    1.1548057 0.0089938136  0.013208412           10     5.808495     883.4174   0.97802013 
   10800    0.8868156   -6.4586423    1.1550944 0.0089127649  0.013215983            6    5.4330663     884.9153   0.97636463 
   10900   0.89813932    -6.527666    1.1496612 0.0087894587  0.013195725           11    5.4172783    879.07618   0.98284998 
   11000   0.84826259   -6.4205202    1.1699788 0.0088634752  0.013173574            7    5.7475621    880.84472   0.98087663 
   11100   0.92441765   -6.4640903     1.197884 0.0089931225  0.013164965            7     5.441261    883.60724   0.97781001 
   11200   0.87842984    -6.452424    1.2024742 0.0089469803  0.013155411            5    5.8300306    878.52946   0.98346161 
   11300   0.90300374   -6.4705063    1.2269504 0.0090483063  0.013149267            8    5.8723263     878.0157   0.98403707 
   11400   0.92753377   -6.4532495    1.2495321 0.0091340063  0.013154016            4    5.5477288    883.32559   0.97812178 
   11500     0.918646   -6.4602013    1.2599862 0.0091303341  0.013157745           10    5.5144875    883.41523   0.97802253 
   11600   0.88482289   -6.4577493    1.2615368 0.0090627637  0.013148009            7    5.7557001     879.1144   0.98280724 
   11700   0.87283326   -6.4928548    1.3012347 0.0092680532  0.013142126            9    5.6067494    878.14892   0.98388779 
   11800   0.90238996   -6.4329378    1.3226845 0.0093409918  0.013151483            8    5.5924099    883.87217   0.97751691 
   11900   0.87361694   -6.3830034    1.3486408 0.0094442629  0.013165566            4    5.9606799    881.91309   0.97968837 
   12000   0.85688564   -6.3765211    1.3826481 0.0096017225  0.013186146            6    5.6490257    886.07645   0.97508516 
   12100   0.90337077   -6.4468761    1.3961524 0.0096153741  0.013212252           13    5.3313152    886.44561   0.97467909 
   12200   0.87410691   -6.4346543     1.406505  0.009607274   0.01323154            6    5.4582574    885.41113   0.97581787 
   12300   0.91908501   -6.4548465    1.4264183 0.0096640801  0.013255156            6    5.4320757    884.72122   0.97657882 
   12400   0.90237702   -6.5178486    1.4357113 0.0096485969  0.013272494            6    5.5012092    878.90813   0.98303789 
   12500   0.89110807   -6.5152862    1.4726481 0.0098176535  0.013293215            7    5.0975439    884.92798   0.97635064 
   12600   0.88175597   -6.4319367    1.4790314 0.0097819534  0.013315212            6    5.7809435    880.91318    0.9808004 
   12700   0.87497166   -6.4484506     1.519337 0.0099694028  0.013345366           11    6.2587531    873.03531    0.9896507 
   12800   0.85689845   -6.4742543    1.5243034 0.0099238497  0.013381033            6    6.4714948    866.87166   0.99668734 
   12900   0.91815104   -6.5052506    1.5484035  0.010002606  0.013409037            5    5.9109983    873.45495   0.98917523 
   13000   0.89626091   -6.5132062    1.5807133  0.010132777  0.013445169            7    5.6511124    876.76723   0.98543829 
   13100   0.90344437    -6.437727     1.596696  0.010157099  0.013479708            4    5.8680452    879.41431   0.98247207 
   13200   0.87600474   -6.4993378    1.6543017  0.010443824  0.013524416            3    5.4661296    880.40883   0.98136226 
   13300   0.88524242   -6.4728999    1.6817967  0.010537573    0.0135803            5    5.4463276    883.08318   0.97839028 
   13400   0.91381606   -6.4281764     1.731137  0.010765777  0.013644487            3    5.5093879    885.50422   0.97571529 
   13500     0.905961   -6.4924171    1.7283571  0.010668871  0.013710239            4    5.5180303    880.43074   0.98133784 
   13600   0.86825261   -6.4521784    1.7208836  0.010544629  0.013757813            7    5.7964579    878.37306   0.98363672 
   13700   0.90784751    -6.467591     1.724075  0.010487074  0.013796365            5    5.7967794     878.0582   0.98398944 
   13800   0.90602147   -6.4238308    1.7223916  0.010400915  0.013823656            4     6.040552    877.78143    0.9842997 
   13900   0.88040828   -6.4340894    1.7447589  0.010460185  0.013844725            5    5.3811384    886.36764   0.97476483 
   14000    0.9172105   -6.4992803    1.7737157  0.010557831  0.013868649            7    5.1465859    884.86436   0.97642084 
   14100   0.86899061   -6.4901338    1.7707484  0.010465416  0.013887776           11    5.5866584    879.46387   0.98241671 
   14200   0.89305874    -6.415991    1.7799037  0.010445444  0.013901999            5    5.6914165    883.62662   0.97778856 
   14300   0.94213143   -6.4943894    1.7862668   0.01040948  0.013912219            5    5.1949758    885.77666   0.97541518 
   14400   0.85665779   -6.4655819    1.7737392  0.010264694  0.013907328           10    5.4215534    883.23771    0.9782191 
   14500   0.91269185   -6.4523376    1.7829772  0.010246995  0.013898663           13    5.4023232    885.26869   0.97597487 
   14600   0.86508999   -6.4371919    1.8129885  0.010348107  0.013891279           20    5.6232663    882.71313   0.97880044 
   14700   0.89282368   -6.4066812    1.8342924  0.010398482   0.01388936            8    6.1044857    877.91051   0.98415498 
   14800    0.9356266   -6.3979446    1.8666147  0.010510218  0.013894672            8    5.6613073    886.68109   0.97442024 
   14900   0.89073804     -6.40091      1.88655  0.010551174  0.013900385           17    5.5167071     887.6362   0.97337175 
   15000   0.89536494    -6.420746    1.9090055  0.010605586  0.013906857            9    5.5996648    884.26752   0.97707988 
   15100   0.90277032   -6.4995808    1.9127794  0.010556178  0.013910362            8    5.1979833    884.14441   0.97721593 
   15200   0.91994987    -6.465878    1.9224209  0.010539588   0.01391037           15    5.4188499    883.67355   0.97773663 
   15300   0.93220579   -6.3828052    1.9208722  0.010462267  0.013904978            5    5.6332834     887.0442   0.97402136 
   15400   0.90553078   -6.4320269     1.915027    0.0103627  0.013893349            2    5.7804229    881.01163    0.9806908 
   15500   0.89683421   -6.4477209    1.9276231  0.010363564   0.01387818            4    5.7816201    879.13356   0.98278582 
   15600   0.95079681   -6.4399977    1.9710539  0.010529134  0.013867966            5    5.7777051    881.56277   0.98007769 
   15700   0.89444657    -6.468144     1.978177  0.010499878  0.013862686            7    5.8933928    876.69892   0.98551508 
   15800   0.94481018   -6.4869344    1.9915241  0.010503819  0.013854873            6    5.9344529    875.22926   0.98716992 
   15900   0.90249005   -6.5247951    2.0103254  0.010536296  0.013849158            7    5.8120473    873.55334   0.98906382 
   16000   0.93972281   -6.5274785    2.0118043  0.010478147  0.013839126            8     5.813425     874.1369   0.98840353 
   16100   0.89291705   -6.5070871    2.0231208  0.010471639   0.01382869            6    5.6470474    877.59974   0.98450349 
   16200   0.93568324   -6.4689752    2.0410558  0.010499258  0.013815285            5    5.5640155    882.04214   0.97954503 
   16300   0.90096974   -6.4581362    2.0432909  0.010446272  0.013801836            8    5.9977612    876.46597     0.985777 
   16400   0.90864004   -6.4859076    2.0321787  0.010326111  0.013781125           10    5.9664942     874.3961   0.98811053 
   16500   0.91242373   -6.4659065    2.0279549  0.010242196  0.013754926           11    6.1809948    872.83748     0.989875 
   16600   0.91726087   -6.4932178    2.0343006  0.010212352  0.013726981           11    6.0963711    871.71341   0.99115143 
   16700   0.95048395   -6.4301995    2.0505181  0.010232126  0.013696612            9    6.2422806    875.63257   0.98671523 
   16800   0.89805741   -6.4644958    2.0821562  0.010328156  0.013672773            5    6.1721176    872.81941   0.98989549 
   16900   0.91730281    -6.483997    2.0809769  0.010261227   0.01364747           10    6.0570712     873.2687    0.9893862 
   17000   0.88118586   -6.4822279    2.0991402  0.010289903  0.013620889           22     6.171977    871.51234   0.99138011 
   17100   0.92223618   -6.4690562    2.0959009  0.010213942  0.013593704           11    5.6506028    880.24948   0.98153991 
   17200   0.90640571   -6.4672962     2.110922  0.010227335  0.013561982           11    5.6747906    880.07414   0.98173547 
   17300   0.87401464   -6.5222859    2.1276685  0.010248885  0.013532645            4    5.7546638    873.51992   0.98910165 
   17400    0.8740421   -6.4608033    2.1417622  0.010257481  0.013503747            3    5.8090181    876.95086   0.98523194 
   17500   0.89715441   -6.4681816    2.1779871  0.010371367  0.013478585            7    5.8187935    876.89502   0.98529469 
   17600   0.92160007   -6.5097606    2.1922417  0.010379932  0.013457491            4     5.670623    876.21508   0.98605927 
   17700   0.87444939   -6.4692772    2.2170883  0.010438269  0.013438039           14    5.8727186    875.78933   0.98653863 
   17800   0.91522429   -6.4380584    2.2402177   0.01048791   0.01342104            5    5.9303589    877.89694   0.98417019 
   17900   0.89028567   -6.5133384    2.2853129  0.010639259    0.0134107           13    5.1941138    883.76031   0.97764064 
   18000    0.9265063    -6.491031    2.2847056   0.01057734  0.013399891            7    5.3230592    883.18919   0.97827284 
   18100   0.88224953    -6.522218    2.2870576  0.010529731  0.013385464            4     5.345745    880.16053   0.98163911 
   18200   0.85580294   -6.5329086    2.2972464  0.010518527  0.013368073            2    5.6069903     875.5178   0.98684459 
   18300   0.89777807   -6.4631329    2.3257398    0.0105908   0.01335527           11    6.2371796    871.96964   0.99086019 
   18400   0.93728128   -6.4604868    2.3473082  0.010630924  0.013346518            5    6.0640325    874.91355   0.98752614 
   18500   0.90680978   -6.5037619    2.3577656  0.010620565  0.013338855            4    5.8660894    874.20338   0.98832836 
   18600   0.90206377   -6.4902379    2.3681223  0.010609867  0.013328927            5     5.944633    874.02655   0.98852832 
   18700   0.87616679   -6.4325738    2.3666503   0.01054657  0.013316242            4    6.0337451    877.71885   0.98436988 
   18800   0.91152202   -6.4753594    2.4061953  0.010665759  0.013303361            7    5.6885504    879.32379   0.98257321 
   18900   0.88350113   -6.4821571    2.4458746  0.010784279  0.013296488            2    5.3813404    882.73569   0.97877542 
   19000   0.92500374   -6.4780033    2.4939239  0.010938262  0.013295722            2    5.2073975    886.45822   0.97466523 
   19100   0.90914581   -6.4257049    2.5252033  0.011017466  0.013300259            3    5.2481302    889.57846   0.97124654 
   19200   0.86919284   -6.4470565    2.5105452  0.010896463  0.013301731            3    5.8134625    879.24661   0.98265946 
   19300   0.89469323    -6.487275    2.5053244  0.010817462  0.013299372            3    5.7440048    877.25432   0.98489113 
   19400   0.91242355   -6.5370847    2.5188322  0.010819726  0.013294789            5    5.8239416    872.00919   0.99081525 
   19500   0.90684281   -6.4840273    2.5290162  0.010807761   0.01328992            5    6.3581224    868.64636   0.99465104 
   19600   0.91358735   -6.4611599    2.5818121  0.010977092  0.013291501            4    6.1163093    874.34473    0.9881686 
   19700   0.92452882   -6.4416652    2.5976531   0.01098838  0.013294203            7    6.0734209    875.81956   0.98650458 
   19800   0.89569688   -6.4961351    2.5994936  0.010940629  0.013295881            4    5.6823995    878.29504    0.9837241 
   19900   0.93094184   -6.4229384    2.5945746  0.010865053  0.013292904            4    6.0559896    877.82275   0.98425337 
   20000   0.92026635   -6.4377471    2.6117382  0.010882242  0.013288364            6    5.9450473    878.73916   0.98322692 
   20100   0.88780568   -6.4440696    2.5954638  0.010760629  0.013281684            9     5.981775     877.1597   0.98499738 
   20200   0.90848554   -6.4763571    2.5684342   0.01059585  0.013267225            4    5.9745687    874.77003   0.98768816 
   20300   0.87929474   -6.4817712    2.5782569  0.010583977   0.01324868            2    5.7290881    877.81027   0.98426737 
   20400   0.92794168   -6.5013954     2.630564  0.010745768  0.013232404            5    5.2631666    883.58337   0.97783642 
   20500   0.88918688   -6.5290554    2.6563643  0.010798229  0.013221438            3    5.3688883    879.21751   0.98269199 
   20600   0.90165516   -6.5615297    2.6552913  0.010741469   0.01321121            4    5.3680549    876.89329   0.98529663 
   20700   0.90643419    -6.578503    2.6440396  0.010644282  0.013195127            4     5.715111    870.78877   0.99220388 
   20800   0.88968508   -6.4526187    2.6549829   0.01063695  0.013179677            4     6.040268    875.50024   0.98686438 
   20900   0.90152699   -6.4437974    2.6568799   0.01059362  0.013163454            3    6.0437103    876.31834   0.98594307 
   21000    0.9224417    -6.472698    2.6673844  0.010584859  0.013145148            7    6.0688533    874.03584   0.98851782 
   21100    0.9033251   -6.5116469    2.6979449   0.01065539  0.013131031            6    6.0319167    871.59629   0.99128462 
   21200   0.93443917   -6.5007233    2.7288221  0.010726502  0.013118961            4     5.753662    876.19031   0.98608714 
   21300   0.88605159   -6.4307191    2.7733124  0.010850205  0.013110003            3    6.1454615    875.76024   0.98657139 
   21400   0.86246239   -6.4116106    2.7836346  0.010839698  0.013104523            9    6.2807197    874.90844   0.98753191 
   21500   0.91048665   -6.4267573    2.8074167   0.01088146  0.013097707            4      5.85317     881.2513   0.98042409 
   21600   0.90869976   -6.4014517    2.8432277  0.010969242  0.013093938           10    5.8576515     882.4677   0.97907267 
   21700   0.89418754   -6.3805655    2.8653926  0.011003812  0.013091868           11    5.7689267    886.24133   0.97490376 
   21800   0.91065613   -6.4752584    2.8728154   0.01098171  0.013089448            7    5.3782968    884.00064   0.97737486 
   21900   0.88411851   -6.4399644    2.8850593  0.010978155  0.013085898            4    5.7362069    881.51379   0.98013214 
   22000    0.8794686   -6.3916282    2.9028036  0.010995468  0.013082709           11     5.982374    880.95356   0.98075545 
   22100   0.92841316   -6.4283864    2.9619895  0.011168889  0.013082893            4    5.7248121    882.11151   0.97946801 
   22200   0.88264601   -6.4371246    3.0063469  0.011285086  0.013089369            4    5.4727585    884.71097   0.97659013 
   22300   0.88650098   -6.4533222    3.0476601  0.011388864  0.013097789            5    5.5150986    883.10225   0.97836915 
   22400   0.91470572   -6.4004856     3.081875  0.011465308  0.013109533            7    5.5660012    886.50639   0.97461227 
   22500   0.86729669   -6.3516823    3.1041072  0.011496693  0.013123167            7    5.8091914    885.54648   0.97566872 
   22600   0.90075164   -6.4968817    3.1069095  0.011456156  0.013136065            7    5.2401777    883.81457   0.97758062 
   22700    0.8512452   -6.4630762    3.1058821  0.011401916  0.013143939            3     5.378241    884.39901   0.97693461 
   22800   0.87307859   -6.4141433    3.1133592  0.011379236  0.013151262            6    5.3895008    887.66138   0.97334414 
   22900   0.88219788   -6.4874477    3.1336106  0.011403241  0.013157403            3    4.9098132    889.77252   0.97103471 
   23000   0.86808876   -6.5498564    3.1088408  0.011263916  0.013160142            2    5.2449016    878.94748   0.98299389 
   23100   0.85012127   -6.4901859    3.1101503  0.011219878  0.013159842            3    5.4288519    880.43193   0.98133651 
   23200   0.86810072   -6.4272115    3.1302213  0.011243611  0.013158865            5     5.857165    879.08179    0.9828437 
   23300   0.87867819    -6.361561     3.112971  0.011133658  0.013157728            5    6.0750208    880.98356   0.98072204 
   23400   0.91788405   -6.4096115    3.1511142  0.011221917  0.013155507            5    5.5336147    885.88612   0.97529466 
   23500   0.92014808     -6.51835     3.164432   0.01122139  0.013154122           12    5.5558853    878.12066   0.98391946 
   23600   0.90135344    -6.540016    3.1698402  0.011192938  0.013152566            9    5.4669912    876.80105   0.98540028 
   23700   0.91712536   -6.4927685    3.1878796   0.01120914  0.013149675            3    5.2504271    884.59401   0.97671926 
   23800    0.8960368   -6.4709575    3.2134441  0.011251555  0.013147961            3    5.4167336    882.83881    0.9786611 
   23900   0.89498563   -6.5047866    3.2236044  0.011239904  0.013145781            2    5.3687664    881.09061   0.98060289 
   24000   0.85268856   -6.4692837    3.2142517  0.011160596  0.013141975            3    5.6083493    879.81026   0.98202992 
   24100   0.91969092    -6.508704    3.2323929  0.011177015  0.013137559            8    5.2020355    884.89705   0.97638477 
   24200    0.8775896   -6.4203216     3.252884  0.011201391  0.013133328            4    5.7364897     882.0059   0.97958528 
   24300   0.88410811   -6.5074213    3.2550035  0.011162563  0.013129359            2    5.6149304    877.70564    0.9843847 
   24400   0.91721191   -6.5208971    3.2744062  0.011183081  0.013125298            2     5.461979    879.29412   0.98260636 
   24500   0.93484018    -6.488742    3.2909618  0.011193747  0.013121053            4    5.3725099    883.46424   0.97796827 
   24600   0.85050706   -6.4653068    3.3085459  0.011207811  0.013116454            5    5.5897494    880.55899   0.98119491 
   24700   0.89690811   -6.4711131    3.3509348  0.011305448  0.013114058            5    5.5040678    881.19781    0.9804836 
   24800   0.91000965    -6.455938    3.3727361  0.011333118  0.013113728            4    5.5980404    881.99255   0.97960011 
   24900   0.89380382   -6.4998346    3.3991882  0.011376132  0.013113955            5    5.6454841    878.01582   0.98403694 
   25000   0.89997051   -6.5032251    3.4008608  0.011336203  0.013115306            2    5.6949918    876.91479   0.98527247 
   25100   0.92171609   -6.4737062    3.4368128  0.011410401  0.013116838            2    5.5461156    881.55032   0.98009153 
   25200   0.84571236   -6.4387349    3.4839936  0.011521143  0.013120259            3    5.5116187    884.51924   0.97680181 
   25300   0.92477159   -6.4557074    3.5228088  0.011603454  0.013127045            4    5.6084923    882.31328   0.97924401 
   25400   0.88955629    -6.429875    3.4964987  0.011471452  0.013133738            2    6.0978688    876.38318   0.98587013 
   25500   0.92402615   -6.5002998    3.4899246  0.011404982  0.013136961            7    6.3286288    868.81887   0.99445353 
   25600   0.95281212   -6.4653303    3.5291542  0.011488132  0.013140729            3    5.8602418    878.33477   0.98367961 
   25700   0.91787908   -6.4409083    3.5518436  0.011517002  0.013145375            1    6.0885029    876.46013   0.98578358 
   25800   0.89483584   -6.5016144    3.5571741   0.01148958   0.01314927            4    5.8009475    875.20865   0.98719317 
   25900    0.8915138   -6.4798694    3.5973264  0.011574409  0.013153252            6    5.9438464    874.67339   0.98779729 
   26000   0.93349097   -6.4511162    3.6105436  0.011572255   0.01315967            4    6.0533836    875.97913   0.98632486 
   26100      0.91689   -6.4774526    3.6128023  0.011535128  0.013164961            9    5.8777292    875.67084   0.98667212 
   26200   0.85609095    -6.490518     3.590412  0.011419885   0.01316634           16    5.9869409    873.04922   0.98963493 
   26300   0.88274861   -6.4797933    3.6152527  0.011455173  0.013166015            8    5.6244956    878.38438   0.98362404 
   26400   0.86897089   -6.4495642    3.6310958  0.011461792  0.013164583            9     5.310173    885.96624   0.97520646 
   26500   0.87373549   -6.3969457    3.6937016  0.011615414  0.013166598           11    5.2211698    892.24172   0.96834746 
   26600   0.93370543   -6.4274348    3.7119613  0.011628951  0.013170788            1    5.7785475    881.67366   0.97995442 
   26700   0.88589307   -6.4429692    3.7544937  0.011718145  0.013176618            2    5.8204676    879.10954   0.98281268 
   26800   0.90277285    -6.469079    3.7597182  0.011690666   0.01318385           14    5.4904649    882.22516   0.97934182 
   26900   0.93863395   -6.4498772    3.7984915  0.011767322   0.01319078           22    5.3923044    886.50349   0.97461546 
   27000   0.86739251   -6.4169846    3.8273648  0.011812854  0.013198632           25    5.8548057     880.4345   0.98133364 
   27100   0.90509444   -6.4626221    3.8571602  0.011860886   0.01320827           17    5.4671133    883.32084   0.97812704 
   27200   0.90135742     -6.35993     3.860271  0.011826811  0.013217875           18    5.7973224    885.75757    0.9754362 
   27300   0.90934307   -6.4447616    3.8378633  0.011715089  0.013224347           17    5.8232633    879.75434   0.98209234 
   27400    0.8948798   -6.4269231    3.8589254  0.011736391  0.013230313            6    6.0852248     876.8579    0.9853364 
   27500   0.89196965    -6.423403    3.8888971  0.011784536  0.013237319            7     5.898827    880.17681   0.98162096 
   27600   0.90019856   -6.4246831    3.9002474  0.011776109  0.013242802            6    5.5545858    885.08019   0.97618273 
   27700   0.94157831   -6.4311935    3.9634529  0.011923745  0.013250974            6    5.3826987    888.08856   0.97287595 
   27800   0.88214013    -6.424101    3.9826563  0.011938418  0.013260536            6    5.8122745    880.92373   0.98078865 
   27900   0.90543937   -6.4503719    4.0207459  0.012009396  0.013271607            3    5.3777517    885.74237   0.97545294 
   28000   0.92382942   -6.4267572     4.062581  0.012091015  0.013283554            5    5.6599135    883.82225   0.97757213 
   28100   0.90280614   -6.4514428    4.0706015  0.012071772  0.013297374            6    5.8696527    878.23829   0.98378767 
   28200   0.93041781   -6.3884206    4.0774029  0.012049063  0.013310486            2    6.5527406    873.58962   0.98902274 
   28300   0.91872894   -6.4275979      4.10211   0.01207924  0.013323771            3    5.9729104    879.00253   0.98293233 
   28400   0.89720615   -6.4946758    4.0909497   0.01200396  0.013334647            2    5.9570846    873.41639   0.98921889 
   28500   0.88657924    -6.455796    4.1407933  0.012107583  0.013345591            4    5.8197348    877.99038   0.98406545 
   28600   0.90229248   -6.4349807     4.232905  0.012333639  0.013360742            8    5.9460569    878.29216   0.98372732 
   28700   0.91251348   -6.4530717    4.2611479  0.012372671  0.013379442            5    5.7109612     879.8042   0.98203669 
   28800   0.94154368   -6.4501731    4.2573423  0.012318699  0.013397161            5    5.7033103    881.83301   0.97977734 
   28900    0.9144613   -6.4916147    4.2707117  0.012314624  0.013413616            8    5.7475789    877.27593   0.98486687 
   29000   0.93183184   -6.4475717    4.2808862  0.012301397  0.013429954            2    5.8137833    879.52359      0.98235 
   29100    0.8580143   -6.4307624    4.2822782   0.01226311  0.013443631            5    5.8966539    879.13416   0.98278515 
   29200   0.95478499   -6.4971852    4.3040288  0.012283187  0.013457817            4    5.5495951    879.97075   0.98185082 
   29300   0.86994903   -6.4559983    4.3176626  0.012280041  0.013470871            5    5.6534108    881.07015   0.98062566 
   29400   0.85955867    -6.536336     4.337933  0.012295728  0.013483218            9    5.1840285    881.22462   0.98045376 
   29500   0.86834687   -6.4420249    4.3421885  0.012266069  0.013493842            4    5.4988334    884.45529   0.97687244 
   29600    0.8982177    -6.459698    4.3462572  0.012236084  0.013504584            3    5.3751899     885.3611     0.975873 
   29700   0.83939192      -6.4524    4.3469405  0.012196803  0.013513577           17    5.4835455    882.50195   0.97903467 
   29800   0.90517773   -6.4963258    4.3700594  0.012220524  0.013521562            7    5.2934405    883.16503   0.97829961 
   29900   0.88758796   -6.4811631    4.3909248  0.012237806  0.013529991            4    5.3779786    882.69015   0.97882592 
   30000   0.93946969   -6.4679418    4.4082524  0.012245145  0.013538982           14     5.678942    880.05394   0.98175801 
   30100   0.90674605    -6.494378    4.4014768  0.012185705  0.013548717            8    5.8312952    875.99847   0.98630309 
   30200   0.94616346   -6.4628036    4.3859645  0.012102551   0.01355574            5     5.919758    877.68156    0.9844117 
   30300   0.91643026   -6.4411981    4.3914925  0.012077812   0.01356095            6    5.9490105    878.09996   0.98394264 
   30400    0.8846661   -6.4537238    4.4020766  0.012067096  0.013565728            8    6.1083304    874.07376   0.98847494 
   30500    0.9383794   -6.5167801    4.4108293  0.012051446  0.013569305            4    5.7261177    876.01833   0.98628073 
   30600   0.91689116   -6.4630286    4.4554022  0.012133448  0.013574287            1    5.6733837     880.1054    0.9817006 
   30700   0.90519774   -6.5140903    4.4860331  0.012177071  0.013579933            6    5.7313933    875.15168   0.98725744 
   30800   0.90061935   -6.4288023    4.5279376  0.012250913  0.013587418            4    6.1400795    875.86692   0.98645123 
   30900   0.90146462   -6.4669162    4.5338239  0.012227141  0.013595293           13    5.8502662    877.15727   0.98500011 
   31000   0.91237292   -6.4857433    4.5305141  0.012178801  0.013601768           17    5.9652134    874.57028   0.98791375 
   31100   0.88533997   -6.5049614    4.5532562  0.012200579  0.013607034           10    5.5358255    878.72875   0.98323857 
   31200   0.91531132   -6.4409834    4.5614296  0.012183305  0.013612016            6    5.6070576    882.85051   0.97864813 
   31300   0.89542375   -6.5039732    4.5626754  0.012147698  0.013615901           13    5.2103505    883.69246   0.97771571 
   31400   0.90986689   -6.4936446    4.5549971  0.012088633   0.01361768           10    5.4551807    881.05143    0.9806465 
   31500   0.92485004   -6.4888369    4.6121151  0.012201363  0.013620565            4    5.2975807    884.13656    0.9772246 
   31600   0.86671897   -6.4772971    4.6053075  0.012144798  0.013623793            4    5.4501432    881.60595   0.98002968 
   31700   0.89642288   -6.4816887    4.6396541  0.012196777  0.013626807            5     5.539815    879.61043   0.98225302 
   31800   0.88477285   -6.4568828    4.6650836  0.012225062  0.013631183           11    5.7492333    879.27206   0.98263102 
   31900   0.89741672   -6.4755277    4.7040483  0.012288527  0.013636515            2    5.7613143    878.24733   0.98377755 
   32000   0.86433714   -6.4892799    4.7189067  0.012288819  0.013642373            2    5.5012185    879.81536   0.98202423 
   32100   0.92990107   -6.4718526    4.7457878  0.012320321  0.013648152           10    5.4483289     882.9305   0.97855947 
   32200   0.91317177   -6.4473158    4.7456197  0.012281624  0.013654105            7      5.66155    881.38668   0.98027349 
   32300   0.89612613   -6.4348888    4.7499378  0.012254741  0.013658928            4    5.8431588    879.21173   0.98269845 
   32400   0.87451058   -6.4683287    4.7444714  0.012202858  0.013662792           10    5.5112506    882.15267   0.97942231 
   32500   0.88478935    -6.467846    4.7424176  0.012160045  0.013663899            5    5.6039916    880.79512   0.98093186 
   32600   0.94047304   -6.4170085    4.7380255  0.012111517  0.013665272            3    6.0875355    877.79578   0.98428361 
   32700    0.8993977   -6.4040726    4.7765972  0.012172776  0.013667364            8    6.1217274    878.16593   0.98386873 
   32800   0.87343254   -6.4321049    4.7974384  0.012188614   0.01366954            2    5.7803532    880.13863   0.98166354 
   32900   0.94376423   -6.4998843    4.8049403  0.012170568  0.013671543            5    5.5266698    880.73208   0.98100208 
   33000   0.89589683   -6.4736997    4.8223011  0.012177528  0.013672541            3    5.5518732    881.51906   0.98012629 
   33100   0.93806744   -6.4412514    4.8954231  0.012324831  0.013675284            5    5.4300961    886.14101   0.97501413 
   33200    0.8816974   -6.4357191    4.9039273  0.012309054  0.013679234            2    5.6989036    882.13822   0.97943835 
   33300   0.86797599   -6.4754026     4.908421  0.012283336  0.013682438            2    5.4469941    882.87829   0.97861734 
   33400   0.90006834   -6.4319022    4.9745076  0.012411446  0.013686243            6    5.6496394    883.31086    0.9781381 
   33500   0.91647487   -6.4097334    5.0451785  0.012550195   0.01369395            7    5.7718794    883.47166   0.97796006 
   33600   0.91838781   -6.4491568    5.0907299  0.012625818  0.013703526            1    5.2413448    889.01675   0.97186021 
   33700    0.9192358   -6.5105495    5.1111715  0.012638901  0.013713184            1    4.9224002    888.36557   0.97257258 
   33800   0.87843114    -6.442276    5.1357587  0.012662127  0.013723157            2    5.3475107    886.26091   0.97488222 
   33900   0.89853171   -6.3525742    5.1599056  0.012684134   0.01373347            2    5.7401761    888.60255   0.97231321 
   34000   0.92057774   -6.4010811    5.1661576  0.012662151  0.013744268            3    5.4352009     889.0517   0.97182199 
   34100   0.89908294   -6.4587594    5.1558242  0.012599766  0.013752826            2     5.671952    880.83518   0.98088725 
   34200   0.86795527   -6.4431563    5.1095075  0.012450067  0.013759849            2    5.9827086    876.89836   0.98529093 
   34300   0.92874132   -6.4191838    5.1828154  0.012591874  0.013766715            2    5.6750636    884.29234   0.97705246 
   34400    0.8832609   -6.4062016    5.1980726   0.01259223   0.01377475            2    5.7796679    882.47824   0.97906097 
   34500   0.87461172   -6.4328608    5.1753021  0.012500729  0.013781748            6    6.0095249    877.46912   0.98465004 
   34600   0.90738949   -6.4430919    5.2113522  0.012551426  0.013787899            9    5.8057962    880.24775   0.98154184 
   34700   0.90252149    -6.396994    5.2391462  0.012582003  0.013795323           13    6.1365591    879.08691   0.98283797 
   34800   0.92067543   -6.4047433    5.2954517  0.012680679  0.013803769            3    5.8261301    883.03543   0.97844318 
   34900   0.87354144   -6.3671948    5.3173097  0.012696537  0.013813325            7    5.9470275    883.48686   0.97794324 
   35000   0.91342023   -6.4394695    5.2950973  0.012607374  0.013820846           10    5.7359299    881.60498   0.98003076 
   35100   0.84253243   -6.4346035    5.3017626   0.01258728  0.013826955           11    5.4662959    884.85295   0.97643343 
   35200   0.90175125   -6.4291197    5.3556245  0.012679035  0.013833475            3    5.3287391    888.01734   0.97295397 
   35300   0.93792012   -6.4832613    5.3584804  0.012649859  0.013840866            4    5.5972893    880.36349    0.9814128 
   35400   0.89995132   -6.4810245    5.3746938  0.012652292  0.013847207           11    5.7469968    877.78946   0.98429069 
   35500   0.92262468   -6.5258637    5.3820591  0.012633941  0.013854545            2    5.5901452    877.31756   0.98482014 
   35600    0.8621902   -6.4739317    5.3795563  0.012592594  0.013860544            2    5.9736584    874.90382   0.98753712 
   35700   0.91784978   -6.4505688    5.4302451  0.012675642   0.01386726            7    5.8755931    878.48123   0.98351561 
   35800   0.91569118   -6.4408948    5.4629293  0.012716316  0.013876058            2    6.1559634    874.87996   0.98756405 
   35900   0.92214363   -6.4921842    5.4351879  0.012616499  0.013883413            6    6.1471163    871.71248    0.9911525 
   36000   0.86211561   -6.4730226    5.4605493   0.01264016  0.013889462            4    6.2793187    869.42885   0.99375585 
   36100   0.92086353   -6.4857487    5.5172465  0.012736026  0.013896706            2    5.9671814    874.88706   0.98755603 
   36200   0.92076692   -6.4890564    5.5353798  0.012742587  0.013904291            2    5.6859899    878.81221   0.98314519 
   36300   0.89756873   -6.5071552    5.5671544  0.012780428  0.013912245            4    5.6141147    878.34141   0.98367217 
   36400   0.90258191   -6.5051118    5.5660549  0.012742799  0.013919226            3    5.7435757     875.8902   0.98642501 
   36500    0.9424135   -6.4683024    5.5674809  0.012711143  0.013926519            2    6.0224305    875.35227    0.9870312 
   36600   0.91236877   -6.4368132     5.575822  0.012695405  0.013933671            2    6.1070287    876.53521   0.98569913 
   36700   0.91354967   -6.4382388    5.6185391  0.012757809  0.013940435            2    5.6969034     881.8398    0.9797698 
   36800   0.89926763   -6.4228336    5.6655403  0.012829575  0.013947486            3    5.6228882    884.18727   0.97716856 
   36900   0.91237599   -6.3478516    5.6853317  0.012839502  0.013956208           17    5.9841053    884.36459   0.97697263 
   37000   0.89474148   -6.4017318    5.7347038  0.012915999  0.013965059            6    5.7602175    884.39819   0.97693552 
   37100   0.89557218   -6.4432427    5.7754716  0.012972757  0.013974506            9    5.4921297    884.91624   0.97636359 
   37200   0.91671748   -6.4095675    5.7899587  0.012970337  0.013984077            4    5.6115022      886.004    0.9751649 
   37300   0.93811447   -6.4187306    5.7894669  0.012934466  0.013993513            5     5.659448    885.38099   0.97585109 
   37400   0.91757378    -6.468998    5.8096531   0.01294486  0.014002636            4    5.7149483    879.78852   0.98205419 
   37500   0.89226233   -6.4374012    5.8291885  0.012953752  0.014011861            3     5.794591    880.72359   0.98101154 
   37600   0.93376774   -6.4137423    5.8053843  0.012866543   0.01402024            5    6.2419329    876.49145   0.98574835 
   37700   0.91107889   -6.4232248    5.8062017  0.012834221  0.014028137            3    6.2500799    876.18161   0.98609694 
   37800   0.94411499   -6.4308183    5.8352887  0.012864393  0.014035146            5    5.9532847    879.93266   0.98189332 
   37900   0.88897908    -6.406797     5.877681  0.012923661  0.014042289            3    5.9318387     880.0951   0.98171208 
   38000   0.90886162   -6.4037107    5.9235669  0.012990278  0.014050839            4    5.9730576    880.24982   0.98153954 
   38100   0.88141387   -6.4449294    5.9695022  0.013056654  0.014060012            3    5.5670737     883.5194   0.97790722 
   38200   0.87071965   -6.3977501    5.9930702  0.013073888  0.014069646            5    5.9418833    880.55738   0.98119671 
   38300    0.9280166    -6.435666    6.0580404  0.013181115  0.014080413            2    5.3942785    887.01812      0.97405 
   38400   0.89665207   -6.4340356    6.0526417  0.013135073  0.014091311            5    5.8266696    879.79232   0.98204995 
   38500   0.90685797   -6.5476204    6.0586623  0.013113987  0.014101081            7     5.224349    880.27937   0.98150658 
   38600   0.86320257   -6.4513523    6.1128185  0.013196931  0.014111395           14    5.4334417    884.01318   0.97736099 
   38700   0.90141542   -6.4519246     6.139637  0.013220579  0.014122507            4    5.6489731     881.5993   0.98003708 
   38800   0.93763679   -6.4885443    6.1470393  0.013202404   0.01413361            3    5.4169873    883.09022   0.97838249 
   38900   0.90008452   -6.3568002    6.1389162  0.013151063  0.014144101            4    5.8639814    885.91299   0.97526508 
   39000    0.8819372   -6.4132185    6.1323213   0.01310325  0.014153202            3    5.7991257    881.54817   0.98009391 
   39100   0.93510256    -6.455519    6.1253119  0.013054799  0.014161452            5    5.7074248     880.4648   0.98129987 
   39200   0.90879469   -6.4827645    6.1359506  0.013044113  0.014168807            5    5.5680628    880.68886   0.98105022 
   39300    0.9054389   -6.4496047    6.1384496   0.01301622  0.014175347            4     5.692316     880.8385   0.98088356 
   39400    0.8859868   -6.4000303    6.1421932  0.012991102   0.01418144            5    5.7733991    883.18858   0.97827352 
   39500   0.90066121   -6.3679934    6.1512961  0.012977418  0.014187135            4    5.8827995    884.77605   0.97651829 
   39600   0.91606938   -6.3943484    6.1268471  0.012893197   0.01419184            4    6.0256709    879.97221   0.98184918 
   39700    0.8958537   -6.3587308    6.1531534  0.012915939  0.014196279            5    6.2713676    879.16979   0.98274532 
   39800   0.92993497   -6.4113405       6.1763  0.012931951  0.014201177            3    6.1389118    877.56762   0.98453951 
   39900   0.93527887   -6.4593755    6.2459664  0.013045043  0.014207326            4    5.8282509    878.25777   0.98376585 
   40000   0.88095652   -6.4382585    6.2839123  0.013091484  0.014214031            9    6.0872164    875.95729   0.98634946 
   40100    0.9495191   -6.5038607    6.3263665  0.013147062    0.0142215            6    5.8477529    875.49056   0.98687529 
   40200   0.89364125   -6.5288169    6.3820415  0.013229771  0.014230017            3     5.684163    875.92532   0.98638546 
   40300   0.91507301   -6.5278032    6.4157478  0.013266641    0.0142391            8    5.4695143    878.15668    0.9838791 
   40400   0.93327075   -6.4611957    6.4276355  0.013258324  0.014248172            5    5.4210245    884.32555   0.97701576 
   40500   0.90895082   -6.4781293    6.4312496  0.013233024  0.014256161            4    5.4843561    881.73211   0.97988946 
   40600   0.90069328   -6.5212592    6.4157405  0.013168597   0.01426322           15    5.3964731    879.58163   0.98228518 
   40700   0.92976423   -6.4545026    6.4215223   0.01314808  0.014269939            2    5.9422408    877.70704   0.98438313 
   40800   0.89546008   -6.4582234    6.4547371  0.013183695   0.01427689            4    5.7102414    880.37962   0.98139482 
   40900   0.89191051   -6.4911949    6.4670985  0.013176647  0.014283765            4    5.8343082    875.72301   0.98661333 
   41000   0.93012491   -6.4491472    6.5123796  0.013236544  0.014291535            5    5.8314353    878.75672   0.98320727 
   41100   0.89390494   -6.4129727    6.4951939  0.013169493  0.014299122           12    6.0343485    878.09512   0.98394807 
   41200   0.93522597   -6.3956843    6.5243835  0.013196568   0.01430644            6    6.1678697    878.43329   0.98356929 
   41300    0.9357342   -6.4053646    6.5363665  0.013188794  0.014313762            3    5.9736584    881.11438   0.98057644 
   41400   0.89520033   -6.4911601    6.5330304  0.013150222  0.014319841            2    5.7809671    876.63884   0.98558261 
   41500   0.89661487   -6.4512581    6.5786614  0.013210163  0.014325889            3    5.9005665    878.47229   0.98352562 
   41600   0.95953561   -6.4509608    6.6109633  0.013243115  0.014333344            3    5.5420252    884.20678   0.97714699 
   41700   0.90757067   -6.4651698    6.6072179  0.013203873   0.01433995            3    5.8228261    878.42799   0.98357522 
   41800   0.93152639   -6.4600497    6.6306971  0.013219093  0.014346792            2    5.7352752    880.00512   0.98181247 
   41900   0.89445773   -6.4294803    6.6620231  0.013249847  0.014353082            5    5.7726272    880.82885    0.9808943 
   42000   0.89855039   -6.4915579    6.6838733  0.013261653  0.014359408            5    5.5440205    879.97614    0.9818448 
   42100   0.90798075   -6.4367696     6.679418  0.013221334  0.014365081            5    5.5403107    883.90255   0.97748332 
   42200   0.87347924   -6.3577636    6.6939113  0.013218624  0.014370461            7    5.7473247    887.10813   0.97395117 
   42300   0.86373139    -6.381207    6.7140971  0.013227142  0.014375433            2    5.3447582    891.13015   0.96955534 
   42400    0.9109715   -6.5039803    6.7178785  0.013203377  0.014379728            3    4.8160613    890.27191   0.97049002 
   42500   0.87521235   -6.4714189    6.6687513  0.013075983  0.014382313            3    5.3505047    884.05637   0.97731325 
   42600   0.90599948   -6.4263289    6.7238759  0.013153122  0.014385192            4    5.5716011    884.51602   0.97680537 
   42700     0.862079   -6.4563573    6.7431408  0.013159916  0.014388884            5      5.35853    885.15207   0.97610347 
   42800   0.90899127   -6.4387785    6.7611478  0.013164228  0.014392201            4    5.4220871    885.27991    0.9759625 
   42900   0.89810202   -6.4595536    6.7524202  0.013116589  0.014395136            3    5.3758856    885.38404   0.97584772 
   43000   0.86465837   -6.5197981    6.7430914  0.013068006  0.014397389            5    5.4132859    879.87818   0.98195411 
   43100   0.90971935    -6.524376    6.7787745  0.013106679  0.014399073            4    5.5998541    877.14282   0.98501633 
   43200   0.89209852   -6.4527105    6.8186148  0.013153192  0.014402097            2     5.533305     883.3343   0.97811214 
   43300    0.9172809   -6.4329725    6.8719212  0.013225406  0.014405308            2    5.2137848    889.80083   0.97100381 
   43400   0.91594849   -6.4279628    6.8486255  0.013150203  0.014408223            6    5.3595841    888.04272   0.97292616 
   43500   0.85220974   -6.4169415     6.837754  0.013099145  0.014409909            6    5.5328752    885.20334   0.97604693 
   43600     0.921963   -6.4146353    6.8775755  0.013145213  0.014412347            1    5.7055373    884.01225   0.97736202 
   43700   0.91016653   -6.4366205    6.9089692  0.013174998  0.014415513            3    5.7947178     880.5352   0.98122142 
   43800   0.91414852   -6.4250876    6.9254842   0.01317634  0.014419116            3    5.9355262    879.51144   0.98236358 
   43900   0.85118503   -6.4323961    6.9764198  0.013243014  0.014422969            1    5.8425821    879.94457   0.98188003 
   44000   0.91795326   -6.4626271     6.983378  0.013226094  0.014426856            7    5.5957686    881.58088   0.98005756 
   44100   0.93318262   -6.5020848    7.0463766  0.013315148   0.01443115            6    5.2996759    883.42485   0.97801188 
   44200   0.90567118   -6.4760584    7.0610793  0.013312744   0.01443553           10    5.5403905    881.50665   0.98014008 
   44300   0.88898781   -6.5247689    7.0756702   0.01331014  0.014440693            8    5.6026932    876.26434   0.98600384 
   44400   0.88059365   -6.4977303    7.0580039  0.013247004  0.014444685           18    5.6859261    877.92367   0.98414023 
   44500   0.87469053    -6.402504    7.1142593  0.013322583  0.014448861           10     6.006033    879.93538   0.98189028 
   44600   0.92772479   -6.4310789    7.1938947  0.013441507  0.014455147            7    5.7910654    881.43372   0.98022118 
   44700   0.90164188    -6.503607    7.1980861  0.013419251  0.014461485            2    5.1482147    885.66981   0.97553286 
   44800   0.88462185   -6.3825788    7.2716174  0.013526074  0.014467706            2    5.2360961    893.42173   0.96706848 
   44900   0.89319456   -6.4206841     7.260785  0.013475844  0.014474046            2    5.3838324    887.95717   0.97301991 
   45000   0.90778178   -6.4728975    7.2697555   0.01346251  0.014480142            1     5.309211    885.29986   0.97594052 
   45100   0.86314711   -6.4868518    7.2639398  0.013421914  0.014485888            2    5.4619449    881.74866   0.97987107 
   45200   0.89764994    -6.452956    7.2742897  0.013411301  0.014491217            3    5.4559478    884.77193   0.97652284 
   45300   0.88535473   -6.4323188    7.2884773  0.013407795  0.014495899            4    5.6186361    883.63275   0.97778177 
   45400   0.90565634   -6.5260763    7.2880065  0.013377398  0.014500475            1    5.3291862    880.91473   0.98079868 
   45500   0.89602183   -6.5192502    7.3005537  0.013370977  0.014504229            5    5.2000237     882.5538   0.97897715 
   45600   0.89350538   -6.4641016    7.3125553  0.013363588  0.014508045            3     5.516639    882.94087   0.97854797 
   45700   0.90411231   -6.4580531     7.334539  0.013374433  0.014512126            4    5.5321791    882.05703    0.9795285 
   45800   0.93893316   -6.4890781    7.3833573  0.013434056  0.014516217            4    5.1463041    886.83566   0.97425041 
   45900   0.86312622   -6.4488126     7.399647  0.013434363  0.014520857            9    5.7439109    880.06592   0.98174464 
   46000   0.91172108   -6.4778262    7.4106809  0.013425146  0.014525801            5    5.7699218     877.9793   0.98407787 
   46100   0.87849193   -6.5116297    7.4540878   0.01347449  0.014530869            3    5.3837773     880.5026   0.98125775 
   46200   0.90585965   -6.4433345    7.4651328  0.013465247  0.014536044            5    5.5608726    883.06556    0.9784098 
   46300   0.90315428    -6.487478    7.5063442  0.013510339  0.014541256            9    5.2336689    884.19607   0.97715883 
   46400   0.86364205   -6.5170006    7.5050752  0.013478942  0.014545748            5    5.3384238    880.27871   0.98150733 
   46500   0.89104998   -6.4908598    7.5174612  0.013472153  0.014550351            7    5.3536715    882.93683   0.97855246 
   46600   0.92269593   -6.5078145    7.5138384  0.013436764  0.014554581           20    5.5558488    879.59262   0.98227291 
   46700   0.91703614   -6.4197397    7.5747009  0.013516597  0.014560192           13    6.1747573    876.55059   0.98568184 
   46800    0.9205521   -6.4238816    7.6307047  0.013587437   0.01456715            6    6.0665952    878.31588   0.98370076 
   46900     0.883162   -6.4484525    7.6351262  0.013566322  0.014573792           10    5.9765628    877.47868   0.98463931 
   47000   0.86913903   -6.4562786     7.615664   0.01350295  0.014578975            3    5.8299911    877.81249   0.98426487 
   47100   0.91909356    -6.430552    7.6158501  0.013474611  0.014584126           12    6.1067904    876.91207   0.98527553 
   47200   0.92878015   -6.5290412    7.6220312  0.013456976  0.014588569            9     5.470736     878.9317   0.98301154 
   47300   0.89038129   -6.4863048    7.6026542  0.013394387  0.014591858           28    5.7865764    876.81263   0.98538727 
   47400   0.84411077   -6.4929005    7.6426617  0.013436466  0.014594966           14    5.7445506    876.53375   0.98570078 
   47500   0.91534359   -6.4791824    7.6986253   0.01350636  0.014599128            8    5.7385512    878.23726   0.98378882 
   47600   0.88096723   -6.4527417    7.7380281  0.013546968  0.014603894            8    5.5714087     882.4289   0.97911572 
   47700   0.92707646   -6.4584991    7.7968672  0.013621361  0.014608905            3    5.1837065    888.76466   0.97213586 
   47800   0.91050587   -6.4473008    7.7743438  0.013553598  0.014614111            5    5.5735659    883.08564   0.97838756 
   47900   0.91636096   -6.4128897    7.7327716  0.013452978   0.01461826           11    5.9269732    880.83431   0.98088823 
   48000   0.98742483   -6.4402113    7.7499911  0.013454846   0.01462215            4    5.9155442    879.90382    0.9819255 
   48100   0.87934372   -6.4120232    7.7951832  0.013505168   0.01462571            1    5.9241966    880.50864   0.98125102 
   48200   0.94054184   -6.5088665    7.7863451  0.013461869  0.014629383            4    5.6286001    878.45686    0.9835429 
   48300   0.87973851   -6.4787568    7.7168818  0.013314151  0.014631217            3     5.940807      875.194   0.98720969 
   48400   0.93877061   -6.4708056    7.7356255  0.013318914  0.014632641            4    5.8393562    877.86997   0.98420043 
   48500   0.92886787   -6.4843758    7.7585707  0.013330877  0.014633877            2    5.5987174    879.29004   0.98261092 
   48600   0.86745807   -6.4833487    7.7923513   0.01336137   0.01463483            3    5.4934573    881.58291   0.98005529 
   48700   0.92262534   -6.4687425    7.7954636   0.01333926  0.014635689            3    5.6269725    880.66908   0.98107226 
   48800   0.93823145   -6.3929539    7.8213491  0.013356129  0.014636987            3    5.9542137    882.59133   0.97893551 
   48900   0.92286192   -6.4291526     7.787883  0.013271784  0.014638258            4    6.0966476    876.95121   0.98523155 
   49000   0.87675783   -6.3988662    7.7343903  0.013153725  0.014637831            6    6.5519443    872.53481   0.99021837 
   49100   0.94088675   -6.4479506     7.757901  0.013166838  0.014636995            9    5.9591638      877.333   0.98480281 
   49200   0.90884641   -6.4228925     7.783238  0.013182991  0.014636099            8    5.9819347    878.91655   0.98302847 
   49300   0.88411627   -6.4586594    7.7478646  0.013096458  0.014634715           11    6.2735687    871.82443   0.99102522 
   49400   0.95495508   -6.4750321    7.7608182  0.013091798  0.014632483            7    5.9666908    875.78294   0.98654582 
   49500   0.94236249    -6.466764    7.7664447  0.013074823  0.014630418            4    5.9305452    876.79471    0.9854074 
   49600   0.94034078   -6.4528567    7.7787637  0.013069159  0.014627916            2    5.9926548    876.97636   0.98520329 
   49700   0.93305278   -6.4280146    7.8389034  0.013143701  0.014626056            3    5.7743713    882.82428   0.97867721 
   49800   0.89066524   -6.3937699    7.8285308  0.013099951  0.014624305            2    6.1547276    878.40617   0.98359964 
   49900   0.89820532   -6.4123406    7.8476393   0.01310561  0.014622456            6    6.1464058    878.27861   0.98374251 
   50000   0.91823108   -6.4510871     7.880307  0.013133845  0.014620176            1    5.6874531    880.94218   0.98076811 
   50100    0.8832626   -6.4794538     7.894405  0.013131079  0.014617608            5    5.5687735    881.00472   0.98069849 
   50200   0.88606867   -6.4075674     7.965548  0.013223021  0.014615719            6    5.5717183    886.41778   0.97470969 
   50300   0.89316871   -6.4072263    7.9788509  0.013218772  0.014614521            4    5.7328976     883.6548   0.97775738 
   50400   0.89413396    -6.469088    7.9796601  0.013193882  0.014613135            3    5.6588188    880.13219   0.98167071 
   50500   0.88793831   -6.4698014    7.9682872  0.013148989  0.014611335            4    5.6532661    880.03498   0.98177916 
   50600   0.95692052   -6.4999085     7.981934  0.013145478  0.014609065            5    5.3593481    883.27215   0.97818097 
   50700   0.88088467    -6.410444    8.0201973  0.013182441  0.014606926            5    5.5679428    885.72164   0.97547577 
   50800   0.87326812   -6.3711532    8.0864057  0.013265101  0.014605544            4    5.6732997    886.61872   0.97448878 
   50900   0.92635644   -6.4541059     8.090294  0.013245406  0.014604702            8    5.4045855    885.34629   0.97588934 
   51000   0.91215041   -6.4568113    8.1097976  0.013251303  0.014603663            5    5.4338527    884.20759    0.9771461 
   51100   0.90986493   -6.4381398    8.1510324  0.013292616  0.014603187            6    5.5767607    883.81076   0.97758484 
   51200   0.89108689   -6.4165648    8.1413088  0.013250828  0.014602809            9    5.7884879    882.67389   0.97884395 
   51300   0.87737868   -6.3891802    8.2010046   0.01332197  0.014602165            9     5.825823    883.04637   0.97843106 
   51400   0.88464401   -6.4864139    8.1893383  0.013277137  0.014601915            7    5.6778263    878.24021   0.98378551 
   51500   0.93959178   -6.4909028    8.2095667  0.013284088  0.014601595            5     5.572999    879.67815    0.9821774 
   51600   0.93454183   -6.4156002    8.2144462  0.013266224  0.014601424            2    6.0502751    878.44931   0.98355135 
   51700    0.8861837   -6.4359432    8.2088599   0.01323156  0.014601074            6    6.2415142    873.28756   0.98936483 
   51800   0.89899697   -6.4547436    8.2431994   0.01326126  0.014600435            6    6.0291765    875.79887   0.98652788 
   51900   0.93887471   -6.4377585    8.3118738  0.013345976  0.014600426            5     5.657742    883.23137   0.97822612 
   52000   0.91222563   -6.4006748    8.3039103  0.013307548  0.014600637            2    5.9446536    881.91178   0.97968983 
   52100   0.88219506    -6.459949    8.3178539  0.013304309  0.014600252            4    5.6446213    881.73607   0.97988506 
   52200   0.89453889   -6.4454569    8.3377779  0.013310629  0.014599677            5    5.5447385    883.69936   0.97770807 
   52300   0.92464794   -6.4957918    8.3720892  0.013339849   0.01459931            2    5.1826683    885.01943   0.97624975 
   52400    0.8990945    -6.509373    8.3601975  0.013295479  0.014598778            1    5.4204594    880.29536   0.98148876 
   52500    0.9071071   -6.4217833    8.4178748  0.013361706  0.014598277            1    5.6762968    884.40251   0.97693075 
   52600   0.88733117   -6.4118683    8.4435946  0.013377051  0.014598768            2    5.7493448    882.86352   0.97863371 
   52700   0.90628417   -6.5271052    8.4284657  0.013327745  0.014598531            3    5.2356401    882.29012   0.97926972 
   52800   0.85824527   -6.4977833    8.4405493  0.013321574  0.014597862            2     5.529806    878.99815   0.98293723 
   52900    0.9002253    -6.466341    8.5124846  0.013409711  0.014597598            5    5.5233948    882.13478   0.97944217 
   53000   0.87703018   -6.4092613    8.5622591  0.013462671  0.014598711            4    5.8422734    881.64169   0.97998996 
   53100   0.91263761   -6.3844068    8.5753713  0.013457896  0.014600367            6    5.7661562     885.0961   0.97616519 
   53200   0.89319077    -6.433856    8.6034617    0.0134766  0.014601846           10    5.6017535    883.44452    0.9779901 
   53300   0.89210109    -6.450471    8.5858469  0.013423776  0.014602621            2    5.3911388    885.35871   0.97587564 
   53400   0.84651109   -6.4779259    8.5696395  0.013373345  0.014602487            4     5.035366    888.12649    0.9728344 
   53500   0.87321009   -6.4864755    8.5867314  0.013374971  0.014601595            2    5.0692603    887.21878    0.9738297 
   53600   0.91890156   -6.4841637    8.5760403  0.013333396  0.014600616            4    5.2060709    885.98604   0.97518467 
   53700   0.89121943   -6.4551671    8.5729072  0.013303704  0.014599562            2    5.6641301    880.87191   0.98084635 
   53800   0.86669663   -6.4971453    8.4981383  0.013163163  0.014597601            5     5.768113    875.65097    0.9866945 
   53900   0.89202482   -6.5359024    8.5025704  0.013145594  0.014594752            4     5.790578    872.73277   0.98999377 
   54000   0.88485539   -6.4861883    8.5508796  0.013195802  0.014592238            4    5.7748681    876.05123   0.98624369 
   54100   0.91089103    -6.459958    8.5987929  0.013245214  0.014590487            3    5.8680271    877.46892   0.98465026 
   54200   0.87420417   -6.5021187    8.5496574   0.01314523  0.014588333           12    5.8917272    873.16035   0.98950897 
   54300    0.9156109   -6.4862128    8.5569686  0.013132242  0.014585452            6    5.9199025    874.98717   0.98744305 
   54400   0.87477601   -6.5078663    8.5894904   0.01315792  0.014582613            5    5.6619381     876.7004   0.98551341 
   54500   0.85156042   -6.5087722    8.6191377   0.01317911  0.014579405            7    5.2145389    883.47979   0.97795106 
   54600   0.92875038   -6.5356124    8.6367415   0.01318184  0.014576321            7    4.9410796    885.71596   0.97548202 
   54700   0.84663669   -6.4749786    8.6095346  0.013116293  0.014572986            6    5.6547419    878.54575   0.98344338 
   54800   0.91858533   -6.4637808    8.6209461  0.013109711    0.0145693            6    5.7675858    878.69034   0.98328155 
   54900   0.90500262   -6.3643166    8.6479834  0.013126872  0.014566492           14    6.2220179    879.78196   0.98206151 
   55000   0.90724653   -6.4269553    8.6267833  0.013070884  0.014563313            4    6.3792469     872.4413    0.9903245 
   55100   0.88446526   -6.4166001    8.6709961  0.013114029  0.014560267            3    6.1150524    876.84694   0.98534871 
   55200   0.91560498   -6.4435033    8.6818133  0.013106602  0.014557093            3    5.7339184    880.57836   0.98117333 
[...]
   89400   0.86983966     -6.47355      14.5898  0.013599739  0.013836994            4    5.3222517    885.40551   0.97582406 
   89500   0.91665029   -6.4926148    14.634293  0.013625971  0.013839102            7    5.2804799    884.17969   0.97717693 
   89600   0.93078764   -6.4049651    14.751203  0.013719497  0.013841612            3    5.3332837    890.47255   0.97027135 
   89700   0.87926376   -6.4176151     14.75066  0.013703697  0.013844477            4    5.4099927    887.66674   0.97333826 
   89800   0.92132457   -6.4492684     14.74309  0.013681412  0.013847187            6    5.3925627    885.99164    0.9751785 
   89900   0.90478431   -6.5075172    14.646836   0.01357697  0.013849529            8    5.6492199    877.33107   0.98480498 
   90000   0.90982497    -6.434759    14.621775  0.013538681  0.013851563            4    6.3486057    872.83571   0.98987701 
   90100   0.95193426   -6.3874967    14.704513  0.013600178  0.013854174           10    6.4028371    876.45925   0.98578456 
   90200   0.94137422   -6.4614605    14.598492  0.013487151  0.013856293           11    6.1535467    873.92569   0.98864241 
   90300   0.92777731   -6.4992229    14.617787  0.013490021  0.013857909            5    6.2432313    869.52229   0.99364906 
   90400   0.92490146   -6.4874549    14.674777  0.013527634  0.013859838            8    6.1906903    871.52219   0.99136891 
   90500   0.93656345   -6.4198845    14.854097  0.013677806  0.013862596            7     5.772436    883.01506   0.97846576 
   90600    0.9027016    -6.468666    14.877152  0.013683915  0.013865249           16    5.4455473    883.59274   0.97782605 
   90700   0.90774792   -6.5201557    14.796076  0.013594337  0.013867415            4    5.3548543    881.16884   0.98051584 
   90800   0.87113012   -6.5544259    14.730129  0.013518841  0.013868889            8    5.5900373    874.26944   0.98825369 
   90900   0.91004149   -6.5051993    14.745087  0.013517682  0.013870433            4    5.8057287    874.81471   0.98763771 
   91000   0.88656735   -6.4380401    14.725112  0.013484535  0.013872005            3    6.1985405    874.68244   0.98778707 
   91100   0.97069671   -6.5061961    14.744009  0.013487019  0.013873565            5    5.9600123    873.35878   0.98928416 
   91200   0.87615411   -6.4450321    14.742304  0.013470672  0.013875098            2    6.2178302    873.29985    0.9893509 
   91300   0.93812718   -6.4529159    14.788287  0.013497889  0.013876338            5    5.8815019    878.19791    0.9838329 
   91400   0.98223834   -6.4797109    14.768383  0.013464974  0.013877824            4    5.8829192    877.31455   0.98482352 
   91500   0.84472282   -6.4113826    14.745899  0.013429781  0.013878852            5    6.2746323    874.51585   0.98797523 
   91600   0.92328345   -6.4857771      14.8521  0.013511735  0.013879939            3     5.434164    882.38984   0.97915905 
   91700   0.96348692   -6.4444565    14.925575  0.013563772  0.013881317            2    5.3806238    887.03035   0.97403657 
   91800   0.90915771    -6.430401    14.952587  0.013573518  0.013883026            3    5.6229576    883.55048   0.97787282 
   91900   0.88777424   -6.4394282    14.982018  0.013585435  0.013884648            3    5.5308354    884.73519    0.9765634 
   92000    0.9039707   -6.4168863    14.950765   0.01354236  0.013886324            4    5.9580315    879.98456   0.98183541 
   92100   0.90183464   -6.4117545    14.910923  0.013491606   0.01388779            2    6.0945734    877.95755   0.98410226 
   92200   0.93782323   -6.4345603     14.90382  0.013470553  0.013889275            3    6.0408904    877.45904   0.98466134 
   92300   0.86746396   -6.4406066    14.870519  0.013425893  0.013890238            4    6.0579812    875.56683   0.98678932 
   92400   0.90254939   -6.4859775    14.889239  0.013428246  0.013890972            3    5.8435625    876.23967   0.98603159 
   92500   0.89377164   -6.4452299    14.890674  0.013415021  0.013891543            6    5.6964821     880.5731   0.98117919 
   92600   0.88485597   -6.3835552     14.98169  0.013482442  0.013892327            6    5.6916937    886.18257   0.97496839 
   92700   0.88440625   -6.4758268    14.997146  0.013481793  0.013893192            2    5.1446414    887.01311    0.9740555 
   92800   0.88790044   -6.4656683    14.991978  0.013462624  0.013893732            2    5.2972165    885.54535   0.97566996 
   92900   0.88282343   -6.4434112    15.034087  0.013485905  0.013894428            2    5.7025022    881.34559    0.9803192 
   93000   0.88507772   -6.4597309      15.0303  0.013468011   0.01389533            4    5.6748601    879.99837      0.98182 
   93100   0.91863353   -6.4182615    15.119343  0.013533246  0.013896538            2    5.6311742    884.82835   0.97646057 
   93200   0.89407717   -6.4162188    15.135395  0.013533079   0.01389775            4    5.7511349    883.19717     0.978264 
   93300   0.89535464   -6.5023515    15.094579  0.013482118  0.013898772            2    5.5995731    878.08008   0.98396492 
   93400   0.85770529   -6.4931015    15.135927  0.013504575  0.013899516            3    5.5036559     880.2569   0.98153164 
   93500   0.88484928   -6.4174747    15.197673  0.013545163  0.013900592            3    5.6289798    884.56309   0.97675339 
   93600   0.91657818   -6.4667868    15.143379  0.013482353  0.013901736            5     5.599559    881.18783    0.9804947 
   93700   0.86614559   -6.4595098    15.111945  0.013440008  0.013902426            6    5.9884045    875.57573   0.98677929 
   93800   0.89903443   -6.4087203    15.189422  0.013494512  0.013903412            7    5.9205133    880.57639   0.98117552 
   93900   0.95130386   -6.4417968    15.191057  0.013481592  0.013904389           13    5.5625052     884.4597   0.97686758 
   94000   0.89988856   -6.4541599     15.14782  0.013428918  0.013905182            6    5.8283226    878.83703   0.98311742 
   94100   0.93356834   -6.4447161    15.150451  0.013416977  0.013905874            3    6.0937472    876.10744   0.98618041 
   94200   0.92253247     -6.39756    15.178114  0.013427206  0.013906884            8    6.4356976    874.03148   0.98852275 
   94300   0.90632525   -6.4147373    15.311185  0.013530563  0.013908195           13    5.7957475    882.20738   0.97936157 
   94400   0.87867684   -6.4183972    15.330037  0.013532872  0.013909398            6    5.7846166    882.36776   0.97918355 
   94500   0.91194063   -6.4540023    15.240654   0.01343973  0.013910388            5    6.0193275    876.25362    0.9860159 
   94600   0.90222349   -6.5010328    15.258504  0.013441248  0.013911049            7    5.8501476    874.84192   0.98760699 
   94700   0.91942098   -6.4359216    15.303182  0.013466369   0.01391174            7    5.8990852    879.43252   0.98245172 
   94800   0.91045711   -6.4813089    15.311493   0.01345947   0.01391249            2    5.4842683    881.72391   0.97989857 
   94900   0.89559794   -6.4703577    15.278617  0.013416418  0.013912943            4    5.7266277    879.09051   0.98283396 
   95000   0.94204887   -6.4922177    15.343517  0.013459225  0.013913537            4     5.566185     880.5984     0.981151 
   95100   0.89794137   -6.4470679    15.343207  0.013444801  0.013914109            7    5.7480957    881.01786   0.98068386 
   95200   0.91597671    -6.464027    15.363761   0.01344867  0.013914516            3    5.4662261    884.26813    0.9770792 
   95300   0.89842555   -6.4936482    15.317146  0.013393796  0.013914724            5    5.5450317    879.84685   0.98198909 
   95400    0.8649676    -6.415779    15.333406   0.01339396  0.013914713            3    5.8868115    880.49121   0.98127045 
   95500   0.90757962   -6.4205457       15.299  0.013349912  0.013914824            5    6.0375529    877.60511   0.98449746 
   95600   0.89185875   -6.4505562    15.354701  0.013384502  0.013914919            7    5.7676477    879.74469   0.98210312 
   95700   0.90099756   -6.4316355    15.396279  0.013406721  0.013915173            3    5.5452229    884.47056   0.97685558 
   95800   0.89367113   -6.4407576    15.386559  0.013384272  0.013915306            2    5.7278404    881.46227   0.98018944 
   95900   0.83177638   -6.3903287     15.24652  0.013248627   0.01391489           11    6.4896155     872.8274   0.98988644 
   96000   0.89069804   -6.3973043    15.393619  0.013362516  0.013914593            3    5.8677685    882.33775   0.97921686 
   96100    0.9242824   -6.4491525    15.468102  0.013413199  0.013914756            3    5.4523851    885.06112   0.97620377 
   96200   0.87365742   -6.4513568    15.433528  0.013369307  0.013914692            4    5.5773498    882.30426   0.97925402 
   96300   0.91332916   -6.4344831    15.428494  0.013351068  0.013914551            4    5.7372881       882.18   0.97939196 
   96400   0.88363891   -6.4551515    15.464152  0.013368043  0.013914477            3    5.5961575    882.70949   0.97880448 
   96500   0.88243074   -6.4614521    15.495604   0.01338135  0.013914369            1    5.5037857    882.38034    0.9791696 
   96600   0.90632685   -6.4387089    15.513755  0.013383157  0.013914369            2    5.4830463    884.76092     0.976535 
   96700   0.89131773   -6.4557069    15.523884  0.013378045  0.013914298            2    5.7216796    879.94698   0.98187733 
   96800   0.90165437   -6.5067949    15.507785  0.013350366  0.013914113            9    5.5224197     879.3414   0.98255353 
   96900   0.92420114   -6.5097796     15.65409   0.01346241  0.013914193            2    5.2482841    883.06407   0.97841145 
   97000   0.86808533   -6.4886277    15.619654  0.013418947   0.01391437            5    5.5288138    879.71451    0.9821368 
   97100   0.90527147   -6.4514551    15.603132  0.013390947  0.013914505            8    5.8336355    879.00692   0.98292742 
   97200   0.91452688   -6.4532071    15.662647  0.013428196  0.013914677            5    5.5470179    883.19678   0.97826444 
   97300   0.91488244    -6.445224    15.567877  0.013333228  0.013914651            2    5.7320373    880.86169   0.98085773 
   97400   0.90251132   -6.5272547    15.549688  0.013303977  0.013914192            4    5.6442787    875.72391   0.98661232 
   97500   0.89962889   -6.4850264    15.606502  0.013338891  0.013913752            8    5.7395587    877.28042   0.98486183 
   97600   0.90162889   -6.4402211    15.620716   0.01333736  0.013913544           11    5.9041903    877.86382   0.98420732 
   97700    0.8692463   -6.4838909    15.689486  0.013382366  0.013913505            4    5.8034057    876.20555   0.98606999 
   97800    0.8759932   -6.4966925    15.666434  0.013349041  0.013913216           16     5.505866    878.81131    0.9831462 
   97900   0.89413891    -6.489404    15.700284  0.013364219  0.013912873            2    5.3631252    883.23375   0.97822348 
   98000   0.92147819   -6.4892344    15.671666  0.013326247  0.013912328           13    5.2768599    884.12405   0.97723843 
   98100   0.89656341   -6.5209025    15.627479  0.013275126  0.013911631            7    5.4608186     879.2582   0.98264651 
   98200   0.87386213   -6.4791883    15.569144  0.013212104  0.013910582            3    5.7437531    877.57675   0.98452927 
   98300    0.8953042   -6.4902095    15.584172  0.013211404  0.013909297           10    5.2962703    883.58281   0.97783704 
   98400   0.86662105   -6.5022417    15.592697  0.013205197  0.013907802            4    5.3117154    881.46451   0.98018694 
   98500   0.89965118   -6.5289502    15.501925  0.013114995  0.013906167            5    5.8353757    872.19489   0.99060429 
   98600   0.90663504   -6.4517905    15.619913  0.013201414  0.013904737           14    5.9313261    877.90105   0.98416558 
   98700   0.89046927   -6.4081935    15.724112  0.013276015  0.013903951           17     5.913554    881.13603   0.98055234 
   98800   0.90118704   -6.4474618    15.756812  0.013290158  0.013903322           14    5.7330845     881.1667   0.98051821 
   98900    0.8739478   -6.4638826     15.79846  0.013311813  0.013902675            4    5.4764533    882.75867   0.97874995 
   99000   0.87748339   -6.4479619    15.758369   0.01326462  0.013901686            3    5.4697338    884.40639   0.97692645 
   99100   0.94192483   -6.5076983    15.739981  0.013235772  0.013900619            4    5.2658943    884.17733   0.97717955 
   99200    0.8511919    -6.457559    15.779487  0.013255617  0.013899593            2    5.4862403    883.18483   0.97827767 
   99300   0.89832649   -6.4191677    15.839076  0.013292276  0.013898746            3    5.5696814    884.52988   0.97679007 
   99400   0.88323198   -6.4774837    15.898967  0.013329114  0.013898061            5    5.0865652     887.6093   0.97340124 
   99500   0.93542718    -6.456257    15.782071  0.013217815  0.013897018            3    5.6793407    881.44095   0.98021314 
   99600   0.88960799   -6.4194266    15.716332  0.013149542  0.013896087            6    6.5859165    870.30886   0.99275101 
   99700   0.92714117   -6.5022034    15.670633  0.013098155  0.013894866            2     6.307957    868.81152   0.99446195 
   99800   0.93579182   -6.4305358    15.865819  0.013248012  0.013893995            5    5.9107146    879.97859   0.98184207 
   99900   0.89478687   -6.4573472    15.915591  0.013276268  0.013893273            4    5.7092998    880.08493   0.98172344 
  100000   0.89958861   -6.4111451    15.968501  0.013307084  0.013892695            6      6.05089     878.5813   0.98340358 
  100100   0.91965672   -6.4086686    16.011759  0.013329803  0.013892543            4    5.9344503    881.59854   0.98003792 
  100200   0.91424025   -6.4318081    15.972185  0.013283587  0.013892258            5    5.8979947    879.50633   0.98236928 
  100300   0.88016336   -6.4722306    15.966419  0.013265552   0.01389169            2    5.7952695    877.85357   0.98421881 
  100400   0.85759965   -6.4916373     15.98401  0.013266941  0.013891035            6    5.9770368    874.16706   0.98836943 
  100500   0.91631775   -6.5075645    15.980706     0.013251  0.013890346            6    6.0141963      871.861   0.99098366 
  100600   0.91221248   -6.4328921    16.006376  0.013259092  0.013889808            6    6.2934584    873.91684   0.98865243 
  100700   0.89829615   -6.3879017    16.026285  0.013262401  0.013889531            3    6.5769483    872.86766   0.98984078 
  100800   0.88120186   -6.4333622    16.032264  0.013254186    0.0138891            5    6.3617798    872.48292   0.99027727 
  100900   0.91746091    -6.438721    16.213906  0.013391069  0.013888899            3    5.6320396    883.51158   0.97791587 
  101000   0.93944601   -6.4218778    16.252456  0.013409617  0.013889091            9    5.6067118    885.34213   0.97589392 
  101100   0.86218686   -6.3963531    16.210796  0.013362014  0.013889124           10    5.8726444    882.55381   0.97897713 
  101200   0.84709261   -6.4209223    16.306446  0.013427574  0.013889001            4     5.654535    883.37359   0.97806864 
  101300   0.94006142   -6.4686522    16.306054  0.013413997  0.013889156            4    5.5891051     882.0962     0.979485 
  101400   0.86900771   -6.4152391    16.283428  0.013382173  0.013889215            6     5.977412    879.06416   0.98286342 
  101500   0.91606608   -6.5033634    16.235419  0.013329572  0.013889092            4    5.7300663    876.73086   0.98547917 
  101600   0.94844664   -6.4667942    16.315253  0.013381933  0.013888935            5    5.3731458    884.81294   0.97647758 
  101700   0.89675663   -6.4272091    16.301902  0.013357835  0.013888798            3    5.7027841    882.36715   0.97918424 
  101800   0.90485685   -6.4540742    16.290842   0.01333566  0.013888554            8    5.9209525    877.30065   0.98483912 
  101900   0.89821755    -6.445406    16.346036   0.01336771  0.013888381            3    5.7467697    881.03705   0.98066251 
  102000   0.89672947   -6.3872999    16.407803  0.013405067  0.013888382            6    6.0901492    880.61996   0.98112698 
  102100   0.91197379   -6.4828438    16.434549  0.013413769   0.01388849            2    5.5339451    881.16715   0.98051771 
  102200   0.92994861   -6.4984267    16.481012  0.013438529  0.013888571            5    5.4121895    881.68299   0.97994405 
  102300   0.88576669   -6.4919082    16.543973   0.01347668  0.013888863            4    5.1257173    886.15041   0.97500378 
  102400   0.84711743   -6.5115539    16.531429  0.013453311  0.013888879            5    5.2347701    882.58116    0.9789468 
  102500   0.88488004   -6.4874712     16.55639   0.01346048  0.013888947            8    5.2347056    884.59231   0.97672113 
  102600   0.89362983   -6.4637141     16.62535  0.013503371  0.013889317            2    5.1766788     888.0474   0.97292104 
  102700    0.8692726   -6.4405063    16.635716  0.013498634  0.013889734            1    5.4949548    884.60407   0.97670814 
  102800   0.91598028   -6.5145814    16.525323  0.013396014  0.013890018            5     5.812994    874.22306   0.98830612 
  102900   0.88215405   -6.4541716    16.543376  0.013397616  0.013890273            4    6.1499581    873.99586   0.98856304 
  103000   0.91382707   -6.4682662    16.617808  0.013444829  0.013890661            3    5.9469786    876.30298   0.98596036 
  103100   0.92408896   -6.4661671    16.570525   0.01339357  0.013891079            3    6.1019375    874.46764    0.9880297 
  103200   0.91932162   -6.4614479    16.600632  0.013404903  0.013891441            4    6.1328685    873.85167   0.98872615 
  103300   0.92526893   -6.4387761    16.617784  0.013405763  0.013891784            6    6.0350722    877.54052   0.98456992 
  103400   0.86254606   -6.4110986    16.599146  0.013377777  0.013892015           14    6.3893777    873.29545   0.98935589 
  103500    0.9186663   -6.4623672    16.556722  0.013330694  0.013892025           18    6.1103698    874.24897   0.98827683 
  103600   0.92724714   -6.4237274    16.680892  0.013417706  0.013891969           11    5.7732232    882.44102   0.97910226 
  103700   0.90513749   -6.4557351    16.658372   0.01338667   0.01389223            8    5.8989669    877.95163   0.98410889 
  103800   0.88016965    -6.464364     16.78305  0.013473868  0.013892412            6    5.4424154    883.15248    0.9783135 
  103900   0.90053066   -6.4286246    16.792675   0.01346862  0.013892684           15    5.5219769    885.31805   0.97592046 
  104000    0.9116726   -6.3720882    16.796644  0.013458849  0.013892942            5    5.7482776    886.16297   0.97498997 
Loop time of 188.454 on 12 procs for 100000 steps with 864 atoms

Performance: 91693.573 tau/day, 530.634 timesteps/s
99.4% CPU use with 12 MPI tasks x no OpenMP threads

MPI task timing breakdown:
Section |  min time  |  avg time  |  max time  |%varavg| %total
---------------------------------------------------------------
Pair    | 9.4005     | 10.098     | 10.669     |  10.3 |  5.36
Neigh   | 0.96267    | 1.0011     | 1.0369     |   2.0 |  0.53
Comm    | 7.1055     | 7.85       | 8.5502     |  13.0 |  4.17
Output  | 1.9034     | 1.9052     | 1.9135     |   0.2 |  1.01
Modify  | 165.71     | 165.91     | 166.2      |   1.3 | 88.04
Other   |            | 1.688      |            |       |  0.90

Nlocal:        72.0000 ave          79 max          68 min
Histogram: 4 2 1 0 2 0 1 0 0 2
Nghost:        1554.42 ave        1571 max        1537 min
Histogram: 1 1 0 3 1 2 1 1 1 1
Neighs:        8044.50 ave        8924 max        7461 min
Histogram: 2 1 3 1 1 2 0 0 0 2
FullNghs:      16088.0 ave       17684 max       15166 min
Histogram: 3 3 0 1 2 0 1 0 0 2

Total # of neighbors = 193056
Ave neighs/atom = 223.44444
Neighbor list builds = 5291
Dangerous builds = 0

#clear
#
#next RN
#
#jump SELF



Total wall time: 0:03:09
