
units lj                  # Use reduced LJ style units
atom_style atomic         # Uncharged point particles
atom_modify map hash      # Needed for indexing of clusters etc
                          # Used to be able to find where atoms are in relation to each other.

# Define a lattice with which to populate the simulation cell. With units
# set to 'lj' the second argument to the lattice command is the reduced
# density rho* and the spacings are multiples of that required to acheive
# that density. Also define a simulation cell called 'box' in lattice units
# and fill it with atoms. Here we're creating a box which is ten lattice
# constants in each direction.
lattice fcc 1.0 spacing 1 1 1                 # All equal sizes - gives the right reduced density.
Lattice spacing in x,y,z = 1.5874011 1.5874011 1.5874011

region box block 0 6 0 6 0 6 units lattice # Defines a region, "box", in lattice units
create_box 1 box                              # Creates a simulation box as specified above,
Created orthogonal box = (0.0000000 0.0000000 0.0000000) to (9.5244063 9.5244063 9.5244063)
  2 by 2 by 3 MPI processor grid
                                              # with one type of atom
create_atoms 1 box                            # Creates particles on lattice points
Created 864 atoms
  using lattice units in orthogonal box = (0.0000000 0.0000000 0.0000000) to (9.5244063 9.5244063 9.5244063)
  create_atoms CPU = 0.001 seconds


# Set the mass of the first (and only) atom type.
mass 1 1.0

# Lennard-Jones interactions between particles, 3.5 sigma cut-off. Apply
# long range tail corrections to energy and pressure and set all coefficients
# to unity since we work in reduced units here. Note that this doesn't shift
# the potential such that it goes to zero at the cutoff. That would require
# pair_modify('shift', 'yes').
pair_style lj/cut  3.5      # non-GPU version
pair_modify tail  yes
pair_coeff 1  1  1.0  1.0   # Intearaction between 1 and 1 set with epsilon = 1 and sigma = 1

write_data data.*
System init for write_data ...
Neighbor list info ...
  update every 1 steps, delay 10 steps, check yes
  max neighbors/atom: 2000, page size: 100000
  master list distance cutoff = 3.8
  ghost atom cutoff = 3.8
  binsize = 1.9, bins = 6 6 6
  1 neighbor lists, perpetual/occasional/extra = 1 0 0
  (1) pair lj/cut, perpetual
      attributes: half, newton on
      pair build: half/bin/atomonly/newton
      stencil: half/bin/3d
      bin: standard

#############################
#   M E L T   S Y S T E M   #
#############################

velocity all create 2.4 2750902 mom yes dist gaussian # Assign velocities
                                                    # Temperature 2.4, random number seed, zero linear momentum
						                                                        # Gaussian distribution

timestep 0.002   # simulation timestep
thermo 100       # output thermodynamic data every 100 steps

# Define a fix  in this case with index 1 applied to all
# particles in the simulation. This fix is for simulations
# in the anisotropic NPT ensemble. Note that we use the MTK
# correction.
fix 1 all npt temp 2.4 2.4 0.1 iso 5.68 5.68 0.5 mtk yes tchain 5 pchain 5 # Use NPT ensemble
                                                                         # Set temperature and pressure and damping
                                                                         # Numbers of thermostats in chain and in barostat
run 1000         # run for 10000 steps
Per MPI rank memory allocation (min/avg/max) = 3.633 | 3.633 | 3.634 Mbytes
Step Temp E_pair E_mol TotEng Press Volume 
       0          2.4   -8.3859253            0    -4.790092     -2.24275          864 
     100    1.3007594   -6.4407842            0   -4.4919034    5.3582762    891.69205 
     200    1.5828213   -6.0796178            0   -3.7081338    6.4338598    907.46239 
     300    1.7629056     -5.73851            0   -3.0972122    5.5953229    954.02439 
     400    1.8733232   -5.2785237            0   -2.4717912    6.0585808    994.36537 
     500      2.02574   -4.9360708            0   -1.9009777    5.7478153    1042.8978 
     600    2.2112838   -4.6895875            0   -1.3765009    5.7138268    1079.0368 
     700    2.3146746   -4.4629638            0  -0.99497044    5.6088298    1118.0222 
     800    2.4734008     -4.39503            0   -0.6892229    5.7937797    1123.7282 
     900    2.4206618   -4.2767239            0  -0.64993368    5.5531987    1146.9555 
    1000    2.3618098   -4.2459295            0  -0.70731524    5.7000582    1143.3852 
Loop time of 0.201136 on 12 procs for 1000 steps with 864 atoms

Performance: 859122.320 tau/day, 4971.773 timesteps/s
99.8% CPU use with 12 MPI tasks x no OpenMP threads

MPI task timing breakdown:
Section |  min time  |  avg time  |  max time  |%varavg| %total
---------------------------------------------------------------
Pair    | 0.06676    | 0.079786   | 0.10402    |   3.9 | 39.67
Neigh   | 0.011685   | 0.013376   | 0.016758   |   1.4 |  6.65
Comm    | 0.060959   | 0.088605   | 0.10315    |   4.2 | 44.05
Output  | 0.00024446 | 0.00025122 | 0.00029468 |   0.0 |  0.12
Modify  | 0.016578   | 0.017401   | 0.01804    |   0.3 |  8.65
Other   |            | 0.001717   |            |       |  0.85

Nlocal:        72.0000 ave          80 max          66 min
Histogram: 2 1 2 2 1 0 2 0 0 2
Nghost:        1314.75 ave        1327 max        1295 min
Histogram: 1 0 0 2 3 0 0 1 2 3
Neighs:        6211.67 ave        7136 max        5326 min
Histogram: 2 0 0 2 1 4 1 0 0 2

Total # of neighbors = 74540
Ave neighs/atom = 86.273148
Neighbor list builds = 80
Dangerous builds = 2

# Equilibrate just above the melting temperature to avoid step fn in T

fix 1 all npt temp 1.25 1.25 0.1 iso 5.68 5.68 0.5 mtk yes tchain 5 pchain 5
run 1000
Per MPI rank memory allocation (min/avg/max) = 3.634 | 3.634 | 3.634 Mbytes
Step Temp E_pair E_mol TotEng Press Volume 
    1000    2.3618098   -4.2459295            0  -0.70731524    5.7000582    1143.3852 
    1100    1.8617945   -4.5967525            0    -1.807293    5.9593679    1083.5566 
    1200      1.66126   -5.0091582            0   -2.5201524    5.9308167    1028.0056 
    1300    1.4533368   -5.3154554            0   -3.1379734    5.5185254    997.93023 
    1400    1.3100587   -5.5224566            0    -3.559643    5.2858775     978.0358 
    1500    1.3306301   -5.7450087            0   -3.7513736    5.2687861    956.68836 
    1600    1.2302857    -5.777427            0   -3.9341343     5.385203    950.58576 
    1700    1.2545134   -5.8251615            0   -3.9455694    5.6370291    940.07281 
    1800    1.2669685   -5.8434457            0   -3.9451925    6.1076728    931.13358 
    1900    1.2975362   -5.8185374            0   -3.8744858    5.5765884    942.23221 
    2000    1.2225624   -5.8503078            0   -4.0185867    5.1330896    948.19804 
Loop time of 0.169946 on 12 procs for 1000 steps with 864 atoms

Performance: 1016795.631 tau/day, 5884.234 timesteps/s
99.8% CPU use with 12 MPI tasks x no OpenMP threads

MPI task timing breakdown:
Section |  min time  |  avg time  |  max time  |%varavg| %total
---------------------------------------------------------------
Pair    | 0.070099   | 0.078108   | 0.086875   |   1.7 | 45.96
Neigh   | 0.010169   | 0.01073    | 0.012402   |   0.6 |  6.31
Comm    | 0.053424   | 0.063148   | 0.07124    |   2.0 | 37.16
Output  | 0.00022031 | 0.00022949 | 0.00027634 |   0.0 |  0.14
Modify  | 0.015165   | 0.015824   | 0.016266   |   0.3 |  9.31
Other   |            | 0.001906   |            |       |  1.12

Nlocal:        72.0000 ave          79 max          65 min
Histogram: 1 1 0 4 0 1 1 3 0 1
Nghost:        1466.08 ave        1476 max        1447 min
Histogram: 1 1 0 0 2 0 0 4 1 3
Neighs:        7466.67 ave        8131 max        6694 min
Histogram: 1 0 2 0 3 1 3 0 0 2

Total # of neighbors = 89600
Ave neighs/atom = 103.70370
Neighbor list builds = 67
Dangerous builds = 0


# Small amount of linear quench

fix 1 all npt temp 1.25 ${temp} 0.1 iso 5.68 5.68 0.5 mtk yes tchain 5 pchain 5
fix 1 all npt temp 1.25 0.97 0.1 iso 5.68 5.68 0.5 mtk yes tchain 5 pchain 5
run 2000
Per MPI rank memory allocation (min/avg/max) = 3.634 | 3.634 | 3.634 Mbytes
Step Temp E_pair E_mol TotEng Press Volume 
    2000    1.2225624   -5.8503078            0   -4.0185867    5.1330896    948.19804 
    2100    1.2593063    -5.859345            0   -3.9725719    5.4251313    941.56215 
    2200    1.2343505   -5.9015712            0   -4.0521884    5.8456427    929.25003 
    2300    1.2103005   -5.8964973            0   -4.0831477    6.3094531    921.60006 
    2400    1.1975997   -5.9368945            0    -4.142574    5.9540508    923.84974 
    2500    1.1553319   -5.9412844            0   -4.2102925    5.5917839    927.76888 
    2600    1.1272736   -5.9752153            0    -4.286262    5.6970754    922.89567 
    2700    1.1521274   -5.9880323            0   -4.2618414    5.7627061    921.18323 
    2800    1.1483235   -6.0405221            0   -4.3200305    5.7473733    917.48273 
    2900    1.1390926   -6.0631777            0   -4.3565164    5.6984044    916.36365 
    3000    1.1510281   -5.9772255            0   -4.2526816    5.8431871    921.13941 
    3100    1.1404844   -6.0840491            0   -4.3753025    5.6626416    915.90783 
    3200     1.099851   -6.1110794            0   -4.4632123    5.2910558    918.26244 
    3300    1.0312147   -6.1683927            0    -4.623361    4.9239999    918.14614 
    3400    1.0521868   -6.2116069            0   -4.6351534    4.9827243    913.11785 
    3500    1.0134937    -6.245077            0    -4.726596    5.1324988    907.68163 
    3600    1.0227942   -6.2927418            0   -4.7603262    5.6890251    895.37156 
    3700    1.0707226   -6.2433851            0   -4.6391601    6.1045424    893.77788 
    3800    1.0300857   -6.2113896            0   -4.6680494     5.984212     896.6382 
    3900   0.99802595   -6.2616748            0   -4.7663685    5.0563566    909.41944 
    4000   0.93584747    -6.247266            0   -4.8451196    5.6132719    898.89568 
Loop time of 0.351969 on 12 procs for 2000 steps with 864 atoms

Performance: 981903.696 tau/day, 5682.313 timesteps/s
99.9% CPU use with 12 MPI tasks x no OpenMP threads

MPI task timing breakdown:
Section |  min time  |  avg time  |  max time  |%varavg| %total
---------------------------------------------------------------
Pair    | 0.15624    | 0.16851    | 0.17881    |   1.8 | 47.88
Neigh   | 0.018315   | 0.019283   | 0.021043   |   0.5 |  5.48
Comm    | 0.11715    | 0.12801    | 0.13999    |   2.1 | 36.37
Output  | 0.00039148 | 0.00040517 | 0.00049247 |   0.0 |  0.12
Modify  | 0.030221   | 0.031338   | 0.032007   |   0.3 |  8.90
Other   |            | 0.004424   |            |       |  1.26

Nlocal:        72.0000 ave          76 max          67 min
Histogram: 1 1 0 2 0 1 4 1 1 1
Nghost:        1531.33 ave        1549 max        1518 min
Histogram: 3 1 0 2 1 1 2 0 0 2
Neighs:        7938.08 ave        8705 max        6962 min
Histogram: 1 1 0 2 2 0 0 2 2 2

Total # of neighbors = 95257
Ave neighs/atom = 110.25116
Neighbor list builds = 117
Dangerous builds = 0

#############################
# F R E E Z E  S Y S T E M  #
#############################

# Define solid atoms. This closely follows ten Wolde  Ruiz-Montero and Frenkel  Faraday Discuss  1996  104  93-110
# Compute components of the per-atom q6 vector
compute q6 all orientorder/atom degrees 1 6 components 6 nnn NULL cutoff 1.3 # compute the Q6 parameter.
                                                                             # Use all neighbours within 1.3 unit cell.

# get number of connections
compute coord_number all coord/atom orientorder q6 0.5

# An atom is solid if it has 8 or more connections (of a possible 14)
variable is_solid atom c_coord_number>=8
group solid dynamic all var is_solid    # Must be dynamic to update
dynamic group solid defined

# do clustering
compute cluster solid cluster/atom 1.3 # Create a cluster where all atoms within are solid and max 1.3 units from another member

# define chunks one chunk per cluster
compute clus_chunks solid chunk/atom c_cluster nchunk every compress yes  # Says which atoms are in which chunk

# count the size of each chunk
compute size_chunks solid property/chunk clus_chunks count


# Find the maximum entry in the vector of chunk sizes
variable max_n equal max(c_size_chunks)


# Thermo style which includes this variable
# thermo_style custom step temp pe vol v_max_n

thermo ${N}  # Print the thermo information every 100 steps
thermo 100  

# Reset the npt fix at a lower temperature (below freezing)

compute myRDF all rdf 100
fix 2 all ave/time 1 50 100 c_myRDF[*] file pcf.rdf mode vector


compute msd all msd com yes
variable twopoint equal c_msd[4]/6/(step*dt+1.0e-6)
fix 9 all vector 10 c_msd[4]
variable fit equal slope(f_9)/6/(10*dt)
thermo_style custom step temp pe c_msd[4] v_twopoint v_fit v_max_n press vol density


fix 1  all npt temp  ${temp} ${temp}  0.1  iso  5.68  5.68  0.5  mtk yes tchain  5  pchain  5
fix 1  all npt temp  0.97 ${temp}  0.1  iso  5.68  5.68  0.5  mtk yes tchain  5  pchain  5
fix 1  all npt temp  0.97 0.97  0.1  iso  5.68  5.68  0.5  mtk yes tchain  5  pchain  5

dump dmp2 all dcd ${N} traj.dcd
dump dmp2 all dcd 100 traj.dcd
dump dmp3 all dcd ${N} traj_unwrap.dcd
dump dmp3 all dcd 100 traj_unwrap.dcd
dump_modify dmp3 unwrap yes


# fix rnuntil all halt ${N} v_max_n >= 3980 error soft message no   # Stop when solidified

run 100000 # 5000000  # Run for this many steps
Neighbor list info ...
  update every 1 steps, delay 10 steps, check yes
  max neighbors/atom: 2000, page size: 100000
  master list distance cutoff = 3.8
  ghost atom cutoff = 3.8
  binsize = 1.9, bins = 6 6 6
  5 neighbor lists, perpetual/occasional/extra = 1 4 0
  (1) pair lj/cut, perpetual
      attributes: half, newton on
      pair build: half/bin/atomonly/newton
      stencil: half/bin/3d
      bin: standard
  (2) compute orientorder/atom, occasional
      attributes: full, newton on
      pair build: full/bin/atomonly
      stencil: full/bin/3d
      bin: standard
  (3) compute coord/atom, occasional
      attributes: full, newton on
      pair build: full/bin/atomonly
      stencil: full/bin/3d
      bin: standard
  (4) compute cluster/atom, occasional
      attributes: full, newton on
      pair build: full/bin/atomonly
      stencil: full/bin/3d
      bin: standard
  (5) compute rdf, occasional, copy from (1)
      attributes: half, newton on
      pair build: copy
      stencil: none
      bin: none
Per MPI rank memory allocation (min/avg/max) = 9.696 | 9.700 | 9.701 Mbytes
Step Temp PotEng c_msd[4] v_twopoint v_fit v_max_n Press Volume Density 
    4000   0.93584747    -6.247266 9.1303346e-34 1.9021528e-35 8.3333333e+20            1    5.6132719    898.89568   0.96117939 
    4100   0.93823995   -6.3332723  0.048200362 0.00097968204     0.043799            4    5.3329175     897.6544   0.96250851 
    4200   0.93611224   -6.2901633  0.083130648 0.0016494174  0.036789875            2    5.8415797    891.30978   0.96935994 
    4300   0.99218574   -6.2887673   0.11275098 0.0021850963  0.031823598            3    5.6176109    897.31803   0.96286932 
    4400   0.99978972   -6.2741405   0.13852987 0.0026236715  0.028668039            4    5.9926016    892.00966   0.96859938 
    4500   0.95514938   -6.2810432   0.15722013 0.0029114836  0.026156046            2    5.7556853    894.07662   0.96636014 
    4600    1.0138019   -6.2832228   0.17386124 0.0031496598   0.02363751            2    5.6002297    896.27324   0.96399174 
    4700   0.95299948   -6.2770286    0.1907815 0.0033826504  0.021762404            8    5.9058745    892.73585   0.96781147 
    4800   0.98807513   -6.3383085   0.21064503 0.0036570314  0.020421352            2    5.9425263     887.8524   0.97313472 
    4900   0.95045461   -6.2719062   0.24201844 0.0041159595  0.019978927            4     5.876979    892.87337   0.96766242 
    5000   0.94253537   -6.2094339    0.2699409 0.0044990146  0.019983104            1    6.3059189    891.80772    0.9688187 
    5100    0.9792586   -6.3230357   0.29246812 0.0047788904  0.019963998            3    6.0897472     886.0255   0.97514123 
    5200   0.97316383   -6.3119646   0.32672544 0.0052359841  0.020163052            3    6.0680959    887.56508   0.97344974 
    5300   0.99267585   -6.3249052    0.3616816 0.0056868171  0.020570122            2    5.7101488    892.66332   0.96789011 
    5400   0.97110182    -6.391012   0.38340076 0.0059166779  0.020868543            4    5.5623906    888.29698   0.97264768 
    5500   0.94473684   -6.3863324   0.40902865 0.0061974032  0.021017012            4    5.4603926    890.53158   0.97020703 
    5600   0.95911868   -6.3308081   0.42614502 0.0063414432  0.021084068            7    5.3306755    896.96566   0.96324758 
    5700   0.99899509   -6.3542009   0.45514592 0.0066541796  0.021044107            9    5.0657194    899.46925   0.96056647 
    5800   0.93364595   -6.2813945   0.47404582 0.0068110025  0.021048547            3    5.5141321     897.3387   0.96284714 
    5900   0.92408682   -6.3445681   0.49694769 0.0070190345  0.020941583            5    5.0560649    899.94532   0.96005833 
    6000    1.0022417   -6.3608794   0.52175396 0.0072465821  0.020823752            2    4.9444838    900.84588   0.95909858 
    6100   0.97082783    -6.272631   0.56868943 0.0077689806  0.020907085            3    5.2452489     903.7303   0.95603744 
    6200   0.97772108   -6.3634968   0.60010234 0.0080658911  0.021100467            2    5.6878517    888.66543   0.97224441 
    6300   0.95697857   -6.3563165   0.63170229 0.0083558497  0.021320734            4    5.9128672    886.40714   0.97472139 
    6400   0.96487226   -6.2894948   0.66523733 0.0086619438  0.021517807            3    5.9192176    891.53291   0.96911734 
    6500   0.99773815   -6.3037768   0.69950877 0.0089680605  0.021772092            3    5.7115933    893.61197    0.9668626 
    6600   0.93509389   -6.3154707   0.70679533 0.0089241828  0.021921151            4    5.7433608    890.85945   0.96984996 
    6700   0.99035995   -6.4021297   0.72659628 0.0090372665   0.02192105            5    5.3707614    890.00865   0.97077708 
    6800   0.90733793   -6.3206406   0.75849586 0.0092952917  0.021943074            4       5.9236    887.28645   0.97375544 
    6900   0.96242712   -6.3401824    0.7987952 0.0096472843   0.02202538            5    5.4265609    894.41588   0.96599358 
    7000   0.95170786   -6.2879983   0.81467981 0.0096985685  0.022064976            4    5.6092069    896.17542   0.96409697 
    7100    1.0015017   -6.2419643   0.83053198 0.0097480273  0.022059549            2    5.6599775    899.33854   0.96070607 
    7200   0.96598526    -6.167084   0.83863122 0.0097063792  0.021996338            4    6.2895664    895.05884   0.96529967 
    7300   0.99031389   -6.2949378   0.85798871  0.009794391   0.02191201            2    5.9107819    891.00033   0.96969661 
    7400    0.9361901   -6.2924524   0.86846778 0.0097800419  0.021772263            6    5.8470737    891.04098   0.96965238 
    7500   0.98760656   -6.2758235   0.89943884 0.0099937642  0.021628475            2    5.6571903    896.96406    0.9632493 
    7600   0.91459666   -6.2511506   0.93521709  0.010254573  0.021535564            3    5.6496836    897.62421   0.96254088 
    7700   0.94251281   -6.3090738   0.95115841  0.010293922  0.021451472            4    5.6631821    892.84805   0.96768986 
    7800   0.98436667   -6.3532879   0.98861859  0.010562164  0.021386766            5    5.4463024    893.11698   0.96739846 
    7900   0.97377889   -6.3118081    1.0265929  0.010829038  0.021386162            3    5.5844492    894.56748   0.96582988 
    8000   0.91911871   -6.2641844    1.0405625  0.010839192  0.021380267            3     5.544423    897.74155   0.96241508 
    8100   0.93717432   -6.3555004    1.0597439  0.010902715  0.021330142            3    5.3459172    894.45373    0.9659527 
    8200   0.95987296    -6.298516    1.0952441  0.011130529  0.021291312            2    5.4389071     898.2359   0.96188541 
    8300   0.97960354   -6.2904208    1.1487734  0.011533868  0.021318301            2    5.4745701    899.07095   0.96099202 
    8400    1.0198264   -6.2574407    1.1696714  0.011603883  0.021379318            4    5.8681608    895.23241   0.96511252 
    8500   0.97484283   -6.2731177    1.1812936  0.011581309  0.021414237            5    6.1143864    889.72013   0.97109188 
    8600    1.0342129   -6.3373616    1.1721497  0.011358039  0.021391877            1    6.0656116    886.76396   0.97432918 
    8700   0.97391078    -6.335662    1.1804943  0.011307416  0.021307725            5    6.2563413    882.07986   0.97950315 
    8800    0.9616114   -6.3337093    1.2050698  0.011411645  0.021218473            1    6.0122671     886.3711   0.97476102 
    8900    1.0033833   -6.3191792    1.2257356  0.011476925  0.021134318            3    5.7755603    890.98334   0.96971511 
    9000   0.94332411   -6.3376673    1.2379167  0.011462191  0.021035981            1    5.8184428    889.27216   0.97158107 
    9100   0.95364593   -6.3176666    1.2526389  0.011471051  0.020924133            2    5.8393517     889.8791   0.97091841 
    9200   0.97971438   -6.3286656    1.2658456  0.011465992  0.020806663            1    5.6545448    891.34692   0.96931956 
    9300    0.9540388   -6.4200827     1.267145  0.011354345  0.020662277            1    5.6902203    884.49128    0.9768327 
    9400    0.9529825   -6.3412139    1.2871067   0.01141052  0.020516481            3    6.2011551    882.65655   0.97886318 
    9500    1.0485996   -6.3507126    1.3090982  0.011483317  0.020394099            1     6.109131    884.06152   0.97730755 
    9600   0.98270236   -6.3368252    1.3412384  0.011642694  0.020280205            1    6.1032744    885.66925   0.97553348 
    9700    1.0357055   -6.3470361    1.3741089  0.011805058  0.020196468            2    5.8614174    887.76243   0.97323334 
    9800   0.99396457   -6.3123466    1.4008887  0.011912318  0.020129034            1    5.9148762    890.17172   0.97059925 
    9900    0.9571779   -6.3476517    1.4215661  0.011966044  0.020061695            2    5.9213042    886.38041   0.97475079 
   10000   0.96879168   -6.3258562    1.4460533  0.012050443  0.019992002            2    5.7661054    890.59233   0.97014085 
   10100   0.96347072   -6.2673583    1.4821952  0.012229333  0.019944908            3    5.5182462    899.26144   0.96078844 
   10200   0.98468187   -6.2703997    1.4851536  0.012133607  0.019887271            1    5.4801982    899.68446    0.9603367 
   10300   0.99427993   -6.3728921    1.4967596  0.012109705  0.019812058            6    5.3405729    894.31622   0.96610123 
   10400   0.96634348   -6.3227773    1.5237468  0.012209509  0.019743474            4    5.4869653     895.3107   0.96502812 
   10500    1.0061208   -6.3138835     1.562741  0.012402705   0.01969015            4     5.430316    897.55794   0.96261195 
   10600   0.95929136   -6.3384109    1.5826447  0.012442175  0.019656007            2    5.7349149    890.46365   0.97028104 
   10700     1.002599   -6.3376331    1.6102734   0.01254107  0.019614891            4    5.7106306    891.35516   0.96931059 
   10800   0.98972478   -6.2951695      1.64783  0.012714737  0.019598432            2    5.7392446    893.29931   0.96720102 
   10900   0.94812125   -6.3322501    1.6478939  0.012598577   0.01957538            3    5.9564782     887.5013    0.9735197 
   11000    0.9632116   -6.3023018    1.6628033  0.012596994  0.019533046            2    5.7845716    892.21038   0.96838147 
   11100    1.0248877   -6.3527403    1.6870524  0.012665558  0.019489247            6    5.6145659    891.37609   0.96928783 
   11200   0.97349683   -6.3292347    1.7259534  0.012841914  0.019465504            2    5.7317498    890.61506   0.97011609 
   11300   0.98511316   -6.3823333    1.7509534  0.012912635  0.019447854           10    5.7698016    886.64132   0.97446394 
   11400   0.94522454    -6.363985    1.7462648  0.012765093  0.019419188            8    6.0970065    882.14932   0.97942602 
   11500    0.9602172   -6.3111146    1.7689035  0.012818141  0.019381083            6    5.9530213    889.22918   0.97162803 
   11600   0.96398853   -6.3114724    1.7956138  0.012899524  0.019346303            2    6.0223602    886.91103   0.97416761 
   11700   0.96993626   -6.3803433    1.8244693  0.012994795  0.019314939            8    5.5498657    889.34027   0.97150667 
   11800     0.972094   -6.2966548    1.8539434   0.01309282  0.019291063            3    5.5358431    897.18319   0.96301403 
   11900   0.97787871   -6.3316348    1.8656852  0.013065022  0.019267258            4    5.3630862    896.64234   0.96359491 
   12000    1.0082647   -6.3364595    1.8842501  0.013085069  0.019238792            7    5.5087113    894.45273   0.96595379 
   12100   0.95780839   -6.2018366    1.8955031  0.013054428  0.019210453            4    6.2880635    892.45723   0.96811362 
   12200   0.97707865   -6.3176691    1.9056507  0.013016739  0.019178801            6    6.0195456    887.43926   0.97358776 
   12300   0.98085136   -6.3400057    1.9090666  0.012934055  0.019135322            2    6.2184352    883.61119   0.97780563 
   12400   0.92962417    -6.334557    1.9307188   0.01297526  0.019085397            3    6.2871951    881.55056   0.98009126 
   12500   0.96978131   -6.3167087    1.9721538  0.013147691   0.01904476            2    5.7758213    890.47082   0.97027323 
   12600   0.92948675   -6.3016942    1.9847379  0.013126573  0.019010788            5     5.834272    890.95149   0.96974977 
   12700   0.99375255   -6.2951024    2.0257278  0.013292177  0.018979044            1      5.61824    895.47167   0.96485465 
   12800   0.95675511   -6.3106013    2.0537728  0.013370916  0.018955927            5    5.4995332    896.20363   0.96406661 
   12900   0.98122375   -6.3074219    2.0865809  0.013479204  0.018937453            4     5.588455    895.41772   0.96491278 
   13000   0.97699511   -6.2921552    2.1219325  0.013602131   0.01893333            6    6.1357199    888.19876   0.97275524 
   13100   0.98347268   -6.3577962    2.1600767  0.013740945  0.018936141            2    5.8745791    887.14356   0.97391227 
   13200   0.99415762   -6.2979295    2.2013869  0.013897644  0.018951294            4    5.9102481    892.03285    0.9685742 
   13300   0.95991358   -6.2939459    2.1873942  0.013705477   0.01895644            6    5.9090004    890.71966   0.97000217 
   13400   0.94250833   -6.2993523    2.2156065  0.013778647  0.018953143            9    5.7902803    892.72836    0.9678196 
   13500    1.0053442   -6.3406156    2.2257147  0.013738979  0.018946068            5    5.5263062    893.49798   0.96698596 
   13600   0.95967862   -6.3229656    2.2364802  0.013703922  0.018933839            7    5.6973491    891.56876   0.96907837 
   13700   0.96671777   -6.3406455    2.2347777  0.013593538  0.018913108            3    5.7524862    889.43577   0.97140235 
   13800   0.97321755   -6.3784321    2.2524646  0.013601839  0.018884749            4    5.3632995    892.75984   0.96778546 
   13900    0.9969669   -6.3262687    2.3027537  0.013805478  0.018864233            4    5.1708371    900.62452    0.9593343 
   14000   0.96320529   -6.3211662    2.3308622  0.013874179  0.018851248            2    5.1827213    899.89759   0.96010925 
   14100   0.95871097   -6.3370344    2.3493076  0.013884796  0.018838016            5    5.3559457    897.02009   0.96318913 
   14200   0.90992352    -6.342274    2.3574413  0.013834749  0.018824223            3    5.7240166    889.17711   0.97168493 
   14300   0.92823233    -6.342065    2.3292499  0.013573717  0.018793945            1    5.6490213    890.61636   0.97011467 
   14400   0.97123906   -6.3143969    2.3316188  0.013493164  0.018747063            1    5.6087735    894.37643   0.96603619 
   14500    1.0022718   -6.3001253    2.3636748  0.013584338  0.018705325            2     5.854319    892.51877   0.96804687 
   14600   0.98954493   -6.3720902    2.3769165  0.013566875  0.018665748            4    5.8185367    886.25171   0.97489233 
   14700   0.97835926    -6.392136    2.4278537  0.013763342  0.018635955            8    5.7622389    885.66255   0.97554086 
   14800   0.97186194    -6.297936    2.4778963  0.013952119  0.018616053            8    5.5104102    897.66651   0.96249553 
   14900   0.99638549   -6.3456087    2.5199387  0.014093616  0.018610101            3    5.4718701    894.89792   0.96547324 
   15000   0.92479595    -6.348554    2.5462819   0.01414601  0.018606276            5    5.7880336    888.28496   0.97266084 
   15100   0.97847401   -6.3355156    2.5787696   0.01423162   0.01860724            7     5.636057    891.66447   0.96897435 
   15200   0.94083494   -6.3465387    2.6030421  0.014271064  0.018608908            1      5.53643    892.07921   0.96852386 
   15300   0.97360461   -6.3334837    2.6177554  0.014257926  0.018608886            8    5.5990415     892.1471   0.96845016 
   15400   0.96974273   -6.3303018     2.648658  0.014332564  0.018609322            3    5.6767971    892.51776   0.96804796 
   15500    1.0209192   -6.2793559    2.6668098  0.014337686  0.018613597            6    6.2996928     887.4301   0.97359781 
   15600   0.98424255   -6.3282601    2.7015837  0.014431536  0.018620413            5    5.7987276    890.64251   0.97008619 
   15700   0.93025595    -6.283907    2.7115446  0.014392487  0.018625403            7    6.0528157    888.83564   0.97205823 
   15800    1.0357771   -6.3432881    2.7633316  0.014574533  0.018633071            2    5.8856417    888.14027   0.97281931 
   15900   0.97273332    -6.367878    2.7915277  0.014630648  0.018646895            3    5.6227302    889.90388   0.97089138 
   16000   0.99070648   -6.3439331    2.8287273  0.014732954  0.018661098            2    5.5679452    892.11624   0.96848366 
   16100    1.0102502   -6.3175613    2.8703007  0.014856629  0.018683392            7    5.9777668    889.51338    0.9713176 
   16200   0.98412508   -6.3333467    2.8873709   0.01485273  0.018707881            7      6.06965    886.21346   0.97493441 
   16300   0.93749429   -6.3835037    2.9242862  0.014950338  0.018732171            3    5.7927786    885.41068   0.97581836 
   16400    0.9884676    -6.428688    2.9607697  0.015044561  0.018756471            3    5.5910203    885.57235   0.97564022 
   16500   0.97743649   -6.3718854    3.0147345  0.015225932  0.018785793            2    5.4844668    891.56232   0.96908537 
   16600   0.98861011   -6.2960868    3.0536866  0.015329751  0.018823574            3    5.8079358    892.28143   0.96830437 
   16700    0.9150148   -6.2907233    3.0592042   0.01526549  0.018858724            2    5.6335759    893.72902   0.96673598 
   16800   0.96037052   -6.4132867    3.0552993  0.015155254  0.018885049            5    5.5556285    887.31763   0.97372122 
   16900    0.9737472   -6.3102254    3.1232224  0.015400504   0.01891491            3    5.6667982    893.84753   0.96660781 
   17000   0.94223015   -6.2860088     3.139078  0.015387637   0.01894714            2    5.3823666    899.59441   0.96043282 
   17100   0.94082386   -6.2638799    3.1511196  0.015356333  0.018971547            2    5.4743532    899.61164   0.96041443 
   17200   0.90686872   -6.3293538    3.1666211  0.015342156  0.018994054            1    5.5298245    893.72829   0.96673677 
   17300   0.97120333    -6.353236    3.1833311  0.015333965  0.019014592            6    5.4970403    892.94358   0.96758632 
   17400     1.005685   -6.3839811    3.1736535  0.015199489  0.019029427            2    5.5793137    889.39556   0.97144627 
   17500   0.95600447   -6.3611503    3.2093874  0.015282797  0.019041048            1    5.6776429    888.35254   0.97258685 
   17600   0.96301662   -6.3015611    3.2003315  0.015153084  0.019052329            6    5.8797789    891.02025   0.96967493 
   17700   0.96957199   -6.3272496    3.1987415  0.015059988  0.019053811            2     5.539766    894.10227   0.96633241 
   17800    1.0268489   -6.3172603    3.2559182  0.015243062  0.019055422            2    5.4403562    897.97034   0.96216986 
   17900   0.96654862    -6.316588    3.2741722  0.015242887  0.019061864            2    5.8564055    889.55908    0.9712677 
   18000   0.94552795   -6.3101181    3.3422832  0.015473533  0.019075939            8    5.6695967    894.38585   0.96602602 
   18100    1.0038805   -6.3244465    3.3601777  0.015470431  0.019088278            6    5.4661025     895.8528   0.96444416 
   18200   0.91291539   -6.2833394    3.3699266  0.015430066  0.019103137            7    6.3347629    883.66497   0.97774613 
   18300    1.0009117   -6.3353698    3.4008287  0.015486469   0.01911669            3    6.0287646    886.65109   0.97445321 
   18400   0.94552636    -6.292339    3.4438106  0.015596968  0.019132156            1    5.9399921    889.69516   0.97111914 
   18500   0.96133367   -6.2183992     3.520211  0.015856806  0.019155015            2    5.8827236    897.24648   0.96294611 
   18600    1.0177816   -6.2728404    3.5544082  0.015924768  0.019186435            6    5.7523505    896.32542   0.96393562 
   18700   0.96556411   -6.3029028    3.5448352  0.015796948  0.019213389            8    5.9674925    889.63756   0.97118202 
   18800   0.96770171   -6.3875925    3.5805569  0.015871263  0.019235897            4    5.3125094    893.01469   0.96750928 
   18900   0.98183188   -6.3046908    3.5881508   0.01582077  0.019253587            6    5.2838032    900.57096   0.95939136 
   19000   0.98178664   -6.2816641    3.5756813  0.015682812  0.019267861            2     5.643133    896.33686   0.96392331 
   19100   0.96052806   -6.3216648    3.5776394  0.015609247  0.019275862            2    6.0024818    887.63467   0.97337343 
   19200   0.99611225   -6.2805347    3.6130976  0.015681847  0.019283936            3    6.1097546    889.63422   0.97118567 
   19300   0.97751627   -6.2294521    3.6472541  0.015748074  0.019296172            3    6.4093492    889.27263   0.97158056 
   19400   0.96095093   -6.3101713    3.6692015  0.015761174  0.019309382            3    6.0866538     887.5035   0.97351729 
   19500   0.97207365   -6.3668934     3.674511  0.015703038  0.019316199            5    5.8297287    886.21835   0.97492903 
   19600   0.96733883   -6.3187149    3.7255516   0.01583993  0.019325875            2    5.7665588    890.72122   0.97000046 
   19700   0.95366018   -6.3031452     3.745997  0.015846011  0.019334112            5    5.7581189    892.61457   0.96794297 
   19800   0.96294331   -6.3003569    3.7492709  0.015779759  0.019342708            3    5.9430419     889.9966   0.97079023 
   19900   0.94691674   -6.3888385    3.7549515  0.015724252  0.019345653            5    5.5077798    890.07008   0.97071008 
   20000    1.0020838   -6.3547252    3.7763177  0.015734656  0.019346034            2    5.7094956    889.97402   0.97081485 
   20100   0.95936861   -6.3218233     3.827233  0.015867466  0.019349614            3    5.5904232    893.64293   0.96682911 
   20200    1.0175246   -6.2805513     3.863472  0.015938415  0.019356841            3    5.6146815    898.11315   0.96201687 
   20300   0.96594121   -6.3224352    3.8633199  0.015859277  0.019362297            1    5.7468379    891.59414   0.96905078 
   20400    1.0393155    -6.357216    3.8914109  0.015896286  0.019368943            2    5.5199217    893.78626   0.96667407 
   20500   0.94840376   -6.2567681    3.9410906  0.016020693  0.019375775            3    5.8305315    895.08324   0.96527335 
   20600   0.98946816   -6.3206254    3.9718556  0.016067377   0.01938515            4    5.4409251    897.06433   0.96314163 
   20700   0.97080658   -6.3058658    4.0052332  0.016124127  0.019395475            3    5.8907734    890.84137   0.96986964 
   20800   0.95950848   -6.3574533    4.0745565  0.016324345  0.019413521            8    5.6872202    889.56936   0.97125648 
   20900   0.94378737   -6.3160882    4.1212019  0.016432224  0.019434009           12    5.5575837    894.43882   0.96596881 
   21000   0.95800486   -6.2897779    4.1627649  0.016518908  0.019456818            4    5.6175032    896.11226   0.96416491 
   21100    1.0161847   -6.2776503    4.1979352  0.016579522  0.019482471            2    5.5723144    898.72802    0.9613587 
   21200    1.0055476    -6.301317    4.1663741  0.016377256   0.01950406            1    5.6377618    895.47501   0.96485105 
   21300   0.96174846    -6.308316    4.1831296  0.016365921  0.019520526            1     5.888105    890.02349    0.9707609 
   21400    1.0213982   -6.3093917    4.1999688  0.016355018  0.019535623            3    6.0403552    887.99807   0.97297509 
   21500    1.0074308   -6.3229282     4.222582  0.016366597   0.01955086            3    5.8343419    891.60996   0.96903359 
   21600   0.95546019   -6.3140212     4.213206  0.016254652  0.019562636            4     6.202459    884.57958   0.97673518 
   21700   0.94442297    -6.339729     4.238404  0.016276513  0.019569313            5    5.9296416    886.53429   0.97458159 
   21800   0.98694643   -6.3239941    4.2764462  0.016347271  0.019577818            3     5.647235    892.67024   0.96788261 
   21900   0.90533886   -6.2970031    4.2675552  0.016238794  0.019584015            1    5.9144315    889.77309   0.97103409 
   22000   0.95508895   -6.3085113    4.2873205   0.01623985  0.019586622            3    5.9098776    889.44786   0.97138915 
   22100   0.96619913   -6.3442515    4.3248863  0.016308017  0.019589171            3    5.3747795     895.1864   0.96516212 
   22200   0.92677927   -6.3539336    4.3375953  0.016282264   0.01959238            5    5.6350322    889.68203   0.97113347 
   22300   0.99420565   -6.3530569    4.3336755  0.016194602  0.019591051            4    5.5048948    892.76967   0.96777482 
   22400   0.98934666   -6.3659001    4.3476901  0.016174442  0.019588927            5    5.6029245    890.69134   0.97003301 
   22500   0.96480598   -6.3403877    4.3365059  0.016061133  0.019583405            1    5.8188367    888.85648   0.97203544 
   22600   0.99494212   -6.2731675    4.3723319  0.016122167  0.019577897            3    5.7569984    895.53633   0.96478498 
   22700   0.95133977   -6.2645507    4.3852922  0.016098723  0.019573035            3    5.9284909    892.80177   0.96774002 
   22800   0.98583735   -6.3924536     4.368152  0.015965468  0.019564444            3    5.7920839    885.29577   0.97594502 
   22900   0.93286305   -6.3126564    4.3859382  0.015960474  0.019552561            2    6.1928627    884.57966    0.9767351 
   23000   0.99735464   -6.3060813     4.457458   0.01615021  0.019545573            5    6.0647362    887.33298   0.97370437 
   23100   0.94957218   -6.3388416    4.4821307  0.016169302   0.01954198            1    6.0184425    885.79063    0.9753998 
   23200   0.98981327   -6.3047805    4.5355918  0.016291637   0.01954058            2    6.0140861    889.20182   0.97165793 
   23300   0.95459769   -6.2822764    4.5595425  0.016307376   0.01954081            1    5.9314082    891.67034   0.96896797 
   23400    0.9992249   -6.2752221     4.574001  0.016289177  0.019539701            4    5.8426265    894.86505   0.96550871 
   23500    1.0234701   -6.2427104    4.5788267  0.016236974  0.019538109            1    5.8821182    896.34397   0.96391567 
   23600   0.95923154   -6.2767481    4.5972633  0.016233274  0.019532664            2    5.5326023     898.2076   0.96191571 
   23700    1.0015797   -6.3101095    4.6011771  0.016178541  0.019526183            2    5.5746699    895.33002   0.96500729 
   23800    0.9592717   -6.3321164     4.565426  0.015985385  0.019515028            1    5.9666537    886.86623   0.97421682 
   23900    1.0016829   -6.2997575    4.5740067  0.015948419  0.019501006            1     6.085871    888.78897   0.97210927 
   24000   0.97648782   -6.3250274    4.5600801  0.015833611  0.019485747            2    5.8297382    890.59091    0.9701424 
   24100   0.98867044   -6.4043399    4.5686979   0.01579771  0.019463777            4    5.4716822    889.63975   0.97117963 
   24200   0.95187016    -6.303129     4.566516  0.015724917   0.01944203            4    6.1568111    886.18465   0.97496611 
   24300   0.93029285   -6.3413533    4.5845486  0.015722046  0.019418841            3    5.9755803    885.96966   0.97520269 
   24400   0.93559892   -6.3276751    4.6211136  0.015782491  0.019395209            4    6.0822006    885.56412   0.97564928 
   24500    1.0122003   -6.3274506    4.6835938  0.015930591  0.019378532            9    5.7051589    892.29659   0.96828791 
   24600     0.996183   -6.3286039    4.7243135  0.016003772   0.01936385            1    5.7404672    891.19889   0.96948056 
   24700   0.93354615   -6.3237035    4.7393539  0.015989723   0.01934987            1     6.112042    884.36456   0.97697266 
   24800   0.99351134   -6.3352363    4.7491396   0.01595813  0.019336812            1    6.1789245     884.1162    0.9772471 
   24900    0.9781967   -6.2565342     4.776969  0.015987178  0.019324784            3    6.1881951    889.72408   0.97108757 
   25000   0.98179748   -6.3797874    4.8014675  0.016004892  0.019311231            1     5.662719    888.47609   0.97245161 
   25100   0.94055452   -6.3652008    4.8230203  0.016012683  0.019297079            2     5.470246    891.41725   0.96924308 
   25200   0.94534465   -6.3321969    4.8823988  0.016145498  0.019282305           10    5.1648899    900.07851   0.95991626 
   25300    1.0224413   -6.3759497    4.8901676  0.016107271  0.019271099            2    5.0644173    898.06176   0.96207192 
   25400   0.95541788   -6.3703116    4.8869213  0.016033206  0.019255585            2    5.3907023    892.97508   0.96755219 
   25500   0.96524858   -6.2898443    4.9416837  0.016149293  0.019243294            3    5.7284608    893.76234   0.96669994 
   25600   0.97344713   -6.3065783    4.9388729   0.01607706  0.019232744            6    5.7146424    893.29967   0.96720063 
   25700   0.98477282   -6.3100428    4.9361193  0.016005575  0.019220207            2    5.9791581    889.37755   0.97146595 
   25800   0.98640733    -6.265902    4.9523812  0.015996063  0.019206583            2    6.3432885    886.87408    0.9742082 
   25900    1.0244713   -6.3401458    4.9941226  0.016068605  0.019194493            4    5.6850894    891.85236   0.96877021 
   26000   0.96666159    -6.311471    4.9868528  0.015983502  0.019181079            6    6.3280383    882.98893   0.97849472 
   26100   0.95844391   -6.3624795    5.0252359  0.016044814  0.019168106            6    6.0444457    884.02246   0.97735074 
   26200   0.99304364   -6.3430841    5.0916595  0.016194845  0.019158762            8    5.7754258     889.0526   0.97182101 
   26300   0.95715259   -6.3058947    5.1594635   0.01634811  0.019153526            2    5.8472564    890.85732   0.96985228 
   26400    0.9652192   -6.3666544    5.1776034  0.016343445  0.019148275            4    5.7225628    887.19056   0.97386068 
   26500   0.97072367   -6.3245576      5.20942  0.016381823  0.019145411            4    6.2805497    882.51324   0.97902214 
   26600   0.97148364   -6.2192171    5.2832768  0.016551619  0.019145707            2    6.1138273    893.81936   0.96663827 
   26700   0.99917637    -6.267201    5.2979212  0.016535334  0.019149492            3    5.8907052    893.48507   0.96699993 
   26800   0.96663096   -6.3174638    5.3251271  0.016558231  0.019151136            1    5.4709031    896.24967   0.96401709 
   26900   0.97028026   -6.3028425    5.3124559  0.016457422  0.019149742            2    5.5836575     895.7054   0.96460288 
   27000   0.94106233   -6.3493812    5.3196224  0.016418587  0.019146142            2     5.624824    890.31905   0.97043863 
   27100   0.96436483   -6.2931219    5.3378633  0.016414094  0.019141572            1    5.6466193    894.38256   0.96602957 
   27200   0.97355673    -6.291018    5.3635544  0.016432458  0.019137614            2    5.5531624    897.37758   0.96280542 
   27300   0.96642343   -6.3466912    5.3740731  0.016404374  0.019131841            2    5.5242181    893.31958   0.96717907 
   27400   0.91451063   -6.2916017    5.3781455   0.01635689  0.019125084            2    5.9951331    889.77929   0.97102732 
   27500   0.96017486   -6.2649755    5.4594896  0.016543907  0.019122105            4    5.8244676    894.60759   0.96578658 
   27600    0.9674712   -6.3129127    5.5137358  0.016647753  0.019122915            3    5.7167506    892.53503   0.96802924 
   27700   0.97878913   -6.3429914    5.5188908  0.016603161  0.019124345            6    6.0043539    885.90138   0.97527786 
   27800   0.93758164   -6.2911642    5.5253009  0.016562652  0.019124877            3    6.0522816    888.36843   0.97256946 
   27900    1.0076162   -6.2715599    5.5811102  0.016669982  0.019127127            2    5.9730064    892.13412   0.96846425 
   28000   0.99241529   -6.3465947    5.5790625  0.016604352  0.019129487            4    5.8276276    889.20355   0.97165604 
   28100   0.98155648   -6.3442724    5.5502394  0.016459784  0.019127257            2    6.1038141     883.9547   0.97742565 
   28200    0.9891325    -6.297013    5.6124832  0.016585352  0.019125407           13    6.0905422     889.4168   0.97142307 
   28300   0.97948235   -6.2978728    5.6247775  0.016562949  0.019123974           12    5.8720797    891.45645   0.96920046 
   28400   0.94353132   -6.3471672    5.6253056  0.016506178  0.019121554            3    5.9864472    885.02942   0.97623873 
   28500     1.011675   -6.3558671    5.6723133  0.016585711  0.019119182            4    5.5979306    892.17729   0.96841739 
   28600    1.0218111    -6.307867    5.6946909  0.016592922  0.019117953            4    5.8227846    892.55645     0.968006 
   28700   0.94849198   -6.2980915    5.7211518  0.016611939  0.019117233            4    6.0786726    887.84671   0.97314096 
   28800   0.97403568   -6.2744331    5.7615076  0.016671029  0.019117185            5    6.0310024    891.50898   0.96914335 
   28900    1.0236918   -6.2545593    5.8350984  0.016825543  0.019119496           11    5.8119694    897.00267   0.96320784 
   29000   0.98422305   -6.2652611    5.8332854  0.016762314  0.019123466            6    5.9281597    892.99395   0.96753175 
   29100   0.96963972   -6.3070098    5.8408214  0.016726292   0.01912509            2    5.6957169    893.04716    0.9674741 
   29200    1.0236254   -6.3080233    5.8396076  0.016665546  0.019124633           11    5.8302311    892.19181   0.96840162 
   29300   0.94193029   -6.3024274    5.7945858  0.016480619  0.019120877           13    6.2624535    884.46657   0.97685998 
   29400   0.97160197   -6.3621146    5.8068411    0.0164593  0.019114014           11    5.8905278    885.73918   0.97545645 
   29500   0.97906467   -6.3055706    5.8620226  0.016559386  0.019107216           12    5.6685446     894.6764    0.9657123 
   29600    1.0183008   -6.2813737    5.8703626  0.016526922  0.019102919           11    5.9939409    891.80321    0.9688236 
   29700   0.96290454   -6.2836204    5.8666782  0.016460937  0.019097224           16     6.114406    889.09729   0.97177217 
   29800   0.96132888   -6.3844383     5.922408  0.016561543  0.019091131           15    5.5343121    889.75908   0.97104938 
   29900   0.94908233   -6.3494281    5.9497968  0.016582488  0.019086016            9    5.4887423    892.53215   0.96803236 
   30000   0.99525124   -6.3033384    6.0255386  0.016737607  0.019081902            6      5.37755    898.62913   0.96146449 
   30100   0.96350155   -6.3305041    6.0286606  0.016690644   0.01908014           10     5.487993    895.15449   0.96519652 
   30200   0.97896917   -6.3186391    6.0544804  0.016706623  0.019078281           12    5.7366223    892.20131   0.96839132 
   30300    0.9918023    -6.291053    6.0911489  0.016752334  0.019077312            8    5.9721949    890.79324   0.96992204 
   30400   0.96178012   -6.3195262    6.1134041  0.016758235  0.019077295            7    5.9802511    888.19221   0.97276242 
   30500   0.99607558   -6.2775513    6.1826721  0.016892547  0.019078398           11    5.6921469    896.28382   0.96398036 
   30600   0.96835403   -6.3087257    6.1811613  0.016833228  0.019080276           11    5.5846297    895.66489    0.9646465 
   30700   0.98353254   -6.3330682    6.1361382  0.016656184  0.019077812            5    5.7010667    890.67387   0.97005204 
   30800   0.91758773   -6.3365253    6.0978481  0.016498507  0.019072079            5    6.3009376    880.77349   0.98095596 
   30900   0.98614946   -6.3539028     6.137281  0.016551459  0.019065508            5    5.9506228    885.71057   0.97548797 
   31000   0.97653261   -6.3001461    6.1645353  0.016571331  0.019059831            5    6.1092422    886.77339   0.97431882 
   31100    1.0119941   -6.3425474    6.1987111  0.016609622   0.01905521            4    5.8751092    888.29591   0.97264885 
   31200   0.94329479   -6.3470246     6.245543  0.016681471   0.01905075            8    5.6946356    889.96265   0.97082726 
   31300   0.99927763   -6.3242965     6.302389  0.016779523  0.019047696            3    5.6358427    892.63187   0.96792421 
   31400    0.9700979   -6.3157636     6.328544  0.016795499  0.019046275            1    5.7580936    891.24387   0.96943164 
   31500   0.96346676   -6.3647675    6.3540973  0.016809781  0.019045291            8    5.6551316    889.38502   0.97145778 
   31600   0.92467604   -6.3568217    6.3621409  0.016777797  0.019044014            5    5.8018514     887.0141   0.97405442 
   31700   0.95260232    -6.286674    6.4450746  0.016942888   0.01904323            2    5.9767813    890.56002   0.97017604 
   31800   0.98937493   -6.3471738    6.4963568  0.017023996  0.019046085            2    5.4649821    894.24487   0.96617831 
   31900   0.95728109   -6.3161048    6.4857672  0.016942965  0.019048367            3    5.7605556    891.29216   0.96937911 
   32000   0.98969972   -6.3983531    6.5234033  0.016988029  0.019049962            6    5.5742364    888.62807   0.97228529 
   32100   0.96763455   -6.2999181    6.5925683  0.017114663  0.019055135            1    5.8839708     890.7745   0.96994245 
   32200   0.97274875   -6.2916618    6.6058301  0.017095833  0.019060977            4    5.7980789    892.69936   0.96785103 
   32300   0.95548446   -6.4054478    6.6560618  0.017172502  0.019065716            4     5.235938    892.74481   0.96780176 
   32400   0.95121245   -6.3218914    6.6722737  0.017161198   0.01907033            1    5.2729865    899.10302   0.96095773 
   32500   0.99298455   -6.3241527    6.6789356  0.017125476   0.01907498            2    5.4075642    895.52625   0.96479584 
   32600   0.93210749    -6.340798    6.7056754  0.017141297  0.019078452            5    5.5958565       891.57   0.96907702 
   32700   0.97594568   -6.3000595    6.7201478  0.017125759  0.019082098            5    5.6742766    894.07822    0.9663584 
   32800    0.9485198    -6.314312    6.7614199  0.017178404   0.01908596            2    5.6079243    893.84954   0.96660563 
   32900   0.96470813   -6.3097095    6.7728107  0.017155042  0.019090255            4    5.6277193    893.42986   0.96705969 
   33000   0.93032728   -6.3360985     6.777131  0.017113967  0.019092578            8    5.2740051    896.86778    0.9633527 
   33100   0.99653709   -6.3305115    6.7644746  0.017030399   0.01909327            8    5.4546825    895.23763   0.96510689 
   33200     0.956202   -6.3280674    6.7679665  0.016987867   0.01909306            2     5.465989    895.40246   0.96492922 
   33300    1.0054781    -6.318251    6.7900521  0.016992122  0.019093067            4    5.7841548    891.87164   0.96874927 
   33400    0.9581503   -6.3042534    6.8136164  0.017000041  0.019093914            4    6.1897553    886.17079   0.97498136 
   33500   0.95071536   -6.3365256    6.8024184  0.016921439  0.019093869           11    6.5445132    877.80093   0.98427784 
   33600   0.93894582   -6.3501934    6.8430574  0.016971868  0.019094108           14    6.2576928    881.27735   0.98039511 
   33700     1.032459   -6.3748219    6.9273478   0.01712994  0.019097619            5    5.7674718    887.54505   0.97347171 
   33800   0.96405903   -6.2787467    6.9601332  0.017160092  0.019101358            2    6.3632356    884.94055   0.97633678 
   33900    1.0139579   -6.2616017    7.0171579   0.01724965  0.019106424            7    6.1476103    890.77622   0.96994058 
   34000    1.0032232   -6.3535443    7.0673157  0.017321852  0.019113149            5     5.874135    888.03899   0.97293026 
   34100   0.95955111   -6.3052968    7.0968245  0.017343168  0.019119926            3    5.9976631    889.29704    0.9715539 
   34200   0.99445479   -6.2775407    7.1525542  0.017428251   0.01912758            5    5.9172981    892.62592   0.96793067 
   34300    1.0545555   -6.2983227    7.1434319  0.017355276  0.019135173            4    5.9055717     891.5132   0.96913876 
   34400   0.95284334   -6.3059302    7.1779301  0.017388396  0.019141866            4    5.8476401    890.69317   0.97003101 
   34500   0.98453791   -6.3321098    7.1865119  0.017358724  0.019148129            6    5.7350215    890.67621   0.97004949 
   34600   0.99214905   -6.2890481    7.2483392  0.017457464  0.019155043            3    5.6761418    895.38287   0.96495034 
   34700    1.0020313   -6.2988124    7.2569211  0.017427764  0.019162638            3    5.8112775    892.69915   0.96785127 
   34800   0.97375719   -6.3344255    7.2777342  0.017427524  0.019170054            1    6.0045202    886.84007   0.97424556 
   34900   0.99193425   -6.2783312    7.2533922  0.017319465  0.019175594            2    6.2334034    888.06474   0.97290204 
   35000   0.99860953   -6.2741444    7.2105179  0.017167899  0.019179512            2    6.1944411    888.99352    0.9718856 
   35100    1.0056506   -6.3594259    7.2232613  0.017149243  0.019181157            4    5.8403819    887.71265   0.97328792 
   35200   0.94995001    -6.267794    7.2651738  0.017199748  0.019182187            2    6.1514737    889.49283   0.97134004 
   35300   0.96280154   -6.2264537    7.2812477   0.01718897  0.019184022            2    6.1757595    892.43427   0.96813852 
   35400   0.97646376   -6.2836144    7.2579686  0.017085613  0.019183863            4    5.8607563    892.85042   0.96768729 
   35500   0.94912855   -6.3423336    7.3041264  0.017145836  0.019181773            5    5.4772245    893.64319   0.96682883 
   35600   0.91678807   -6.3705714    7.3083939  0.017107663  0.019179442            2    5.4104097    891.61807   0.96902478 
   35700   0.96104094   -6.3582388    7.3480541   0.01715232    0.0191777            3    5.5001908    892.31366   0.96826939 
   35800   0.93216991   -6.3302993    7.3961222  0.017216299  0.019176403            3    5.3538289    896.17561   0.96409676 
   35900   0.97824558   -6.3092164    7.4232057  0.017231211  0.019175815            3    5.6174444    894.59321    0.9658021 
   36000   0.97233125   -6.3203747    7.4396842  0.017221491  0.019176022            3    5.7650457    891.24541   0.96942996 
   36100   0.97441348   -6.3625304    7.4712585  0.017246672   0.01917686            4    5.6935523    890.31845   0.97043928 
   36200    0.9201117   -6.3615463    7.5678764  0.017421446  0.019179143            5    5.9719918     884.5494   0.97676851 
   36300   0.93302242   -6.2987164     7.616695  0.017485525  0.019184342            3    5.8177717     891.2317   0.96944487 
   36400   0.97260757   -6.2806355    7.6197598  0.017444505   0.01918929            3    5.7359435    895.48644   0.96483873 
   36500    0.9935539   -6.2882201    7.6313335  0.017423136  0.019193431            2    5.9267468    891.82488   0.96880007 
   36600   0.97180983   -6.3191652     7.630162  0.017372864  0.019197086            3    6.1202457    885.77488   0.97541714 
   36700   0.98956514   -6.2405687    7.6497375  0.017369976   0.01920078            4     6.279305    889.14737   0.97171744 
   36800   0.97367787   -6.2787563     7.712979  0.017465985  0.019205099            5    5.8789305    893.51375   0.96696889 
   36900   0.94372952   -6.3229426    7.7343838  0.017466991  0.019209151            7    5.7969148    889.62971   0.97119059 
   37000   0.97128233   -6.3602543    7.7208748  0.017389357  0.019212389            3    5.5597951      890.785   0.96993101 
   37100   0.97664975   -6.3280602     7.707746  0.017312996  0.019213539            2    5.9056148    888.71131   0.97219422 
   37200   0.95822384   -6.3393213    7.7353117  0.017328207  0.019214677            6    5.7751702    889.48563    0.9713479 
   37300   0.95681011   -6.3240963    7.7554496  0.017326741   0.01921457            3    5.8363473    889.22367   0.97163405 
   37400   0.96222048   -6.3756953    7.7691143   0.01731086   0.01921487            1    5.7650271    886.29559   0.97484408 
   37500    1.0086853   -6.3320789    7.8086951  0.017352656  0.019216236            5    5.6362757    892.68487   0.96786674 
   37600   0.95893471    -6.334504     7.844161  0.017385108  0.019217515            3    5.6648533    891.22047   0.96945708 
   37700   0.93417978   -6.3598801    7.8492129  0.017350161  0.019218374            3     5.762654    887.08049   0.97398152 
   37800   0.98834643   -6.3729695    7.8662375  0.017341793  0.019218872            5    5.8972953    885.38531   0.97584633 
   37900    1.0030691   -6.3469476    7.9586133   0.01749915  0.019221431            4    5.6652723    891.96378   0.96864919 
   38000   0.99083746   -6.2582384    8.0391615   0.01762974  0.019225969            2    5.6146228    899.13661   0.96092183 
   38100   0.94385886    -6.252289    8.0525975  0.017612855  0.019231289            3    5.6138833    898.65569   0.96143608 
   38200   0.93898268    -6.322561    8.0104545  0.017474813   0.01923421            5    5.5676053     893.9317    0.9665168 
   38300   0.97692885   -6.3270021    8.0422474  0.017498362  0.019235995            2    5.5208836    894.55043   0.96584828 
   38400   0.96440427   -6.3305882     8.071447  0.017516161  0.019238458            5    5.4965288     894.2875   0.96613225 
   38500    0.9478939   -6.3333951    8.1042079  0.017541575  0.019240642            2    5.6087253    893.16421   0.96734731 
   38600   0.97021309   -6.4215829     8.090844   0.01746728  0.019242734            3    5.3884005    889.50698   0.97132459 
   38700   0.97595019   -6.3397138    8.1494741  0.017548394  0.019244593            2    5.4614485    894.40112   0.96600952 
   38800    1.0013322   -6.3308386    8.1945529  0.017599984  0.019247631            7    5.3953976     896.9694   0.96324356 
   38900   0.94405479   -6.3095186    8.1920608  0.017549402  0.019251278            3    5.9494722     888.7193   0.97218548 
   39000   0.97845017    -6.368518    8.1911506  0.017502458  0.019253609            8    5.5809038     890.0054   0.97078062 
   39100    1.0256947   -6.3321022    8.2670302  0.017619416  0.019256143            6     5.284846    899.39432   0.96064649 
   39200   0.95630864   -6.3290453    8.2889551  0.017621078  0.019258899            6    5.2338383    898.06494   0.96206852 
   39300   0.97441744   -6.3271514    8.3726213   0.01775365  0.019262781            2    4.9936278    902.77478   0.95704934 
   39400    0.9350298   -6.2465501    8.3658156  0.017694195  0.019266598            4    5.3463302    903.00352    0.9568069 
   39500   0.95263487    -6.320349    8.3629916  0.017643442  0.019269489            3    5.4982893    895.57429   0.96474409 
   39600   0.96623812   -6.3350198    8.3671841   0.01760771   0.01927217            2    5.3738648    895.56393   0.96475524 
   39700   0.96289351   -6.3623079     8.419469  0.017673108  0.019274969            3    5.0812609    898.55208   0.96154693 
   39800   0.93428719    -6.363381     8.413558  0.017616327  0.019276866            4    5.1882865      896.146   0.96412861 
   39900   0.96979863   -6.3340599    8.4396483  0.017626667  0.019278104            4    5.2681768    898.66891   0.96142193 
   40000   0.99062048   -6.3768138    8.3887895  0.017476645  0.019278767            2    5.3067837     894.6553   0.96573507 
   40100   0.96770636   -6.3672553    8.4036776  0.017464001  0.019277738            3    5.3137042    894.58828   0.96580742 
   40200   0.97273715   -6.3018943    8.4538663  0.017524598  0.019277761            1    5.6100524    895.17622   0.96517309 
   40300   0.95302392    -6.366149    8.4856558  0.017546848  0.019279291            2    5.5586955    890.88637   0.96982066 
   40400   0.92253715   -6.3742203    8.5206826  0.017575665  0.019280149            3    5.4292795    891.26592   0.96940765 
   40500   0.98568994   -6.3734275    8.5527598  0.017598271  0.019281435            1    5.2605384    894.95341   0.96541338 
   40600   0.94315556   -6.3392727    8.5720313  0.017594481  0.019282296            2    5.5184002    892.94491   0.96758488 
   40700   0.90807964   -6.3615443    8.5718831  0.017550948  0.019283092            3    5.6336698    888.62385   0.97228991 
   40800   0.98532568   -6.3774133     8.583696  0.017532059  0.019282782            1    5.2377789    894.52949    0.9658709 
   40900   0.96560682   -6.2797866    8.5803111  0.017482296  0.019282626            4    5.8664996    893.14025   0.96737326 
   41000   0.95645667   -6.3250854    8.6783618  0.017638946   0.01928324            8    5.3197744    897.05653      0.96315 
   41100   0.99506968   -6.3283864    8.6925008  0.017624697  0.019284217            7    5.1971688    900.82303    0.9591229 
   41200   0.95041771   -6.3371342    8.6168594  0.017428922  0.019283342            8    5.4229217    895.20807   0.96513875 
   41300    1.0070214   -6.3535865    8.6517993  0.017457222  0.019281294            5    5.2354761    896.98348   0.96322844 
   41400   0.92741825   -6.3299152    8.6785635  0.017468928  0.019279121            5    5.3251296    896.25064   0.96401605 
   41500   0.92971554   -6.3117548    8.6342996  0.017337951  0.019275537            5    5.5100722    895.00699   0.96535559 
   41600    0.9746377    -6.323401    8.6674705  0.017362721  0.019271107            4    5.3263397    896.59544   0.96364532 
   41700   0.96075707   -6.3216342    8.7213759  0.017428809  0.019268313            2    5.5407257    893.62135   0.96685246 
   41800   0.93166674   -6.3271751    8.7502951  0.017444767  0.019266234            2    5.6664775    891.23746   0.96943861 
   41900   0.99122749   -6.2743868    8.7907208  0.017483534   0.01926527            4     5.706854    894.80858   0.96556965 
   42000   0.96742361   -6.2457353     8.819068   0.01749815  0.019264854            3     6.055601    892.36845   0.96820994 
   42100   0.94859174   -6.2695944    8.7813566  0.017381941  0.019263798            5    6.2425069     887.1504   0.97390477 
   42200    0.9432095   -6.2190094    8.8078021  0.017392974  0.019262061            7    6.3537165    889.53469   0.97129432 
   42300   0.95835141   -6.2079348    8.8688635   0.01747215  0.019260945            2     6.132211    895.04966   0.96530957 
   42400    1.0173763   -6.2428758    8.9625664  0.017615107  0.019260995            8    5.6311219    900.61818   0.95934106 
   42500   0.99599097   -6.2618334    9.0168344  0.017680067  0.019263156            1    5.6294449    898.86037   0.96121715 
   42600   0.97345564   -6.2823698    9.0164858  0.017637883  0.019264843            5    6.0194407    890.03888   0.97074411 
   42700    1.0047007   -6.3378509    9.0544067  0.017670583  0.019267669            3    5.7950255    889.76133   0.97104693 
   42800   0.95303815   -6.3496638    9.0834487  0.017685842  0.019269272            5    5.4901332    893.10719   0.96740907 
   42900   0.97811413   -6.3403531    9.0749263  0.017628062   0.01927032            3    6.0874957    885.89517   0.97528469 
   43000   0.98787098   -6.2945511    9.0848085  0.017606218  0.019271994            5    5.9893048    890.74574   0.96997377 
   43100   0.99822149   -6.2429593    9.1457517  0.017683201  0.019273792            5    5.8553277     896.1103   0.96416702 
   43200   0.96811396   -6.3129757      9.15091  0.017652218  0.019275405            2    5.5225401    895.85981   0.96443661 
   43300   0.96152002   -6.3612565    9.1321495  0.017575345  0.019274523            1    5.4499158    893.93052   0.96651807 
   43400   0.96958225   -6.3544706    9.1511844  0.017571398  0.019273905            5    5.6011904    891.13932   0.96954537 
   43500   0.99394467   -6.2963834    9.1823585  0.017590725  0.019273571            4    5.8515848    892.54344   0.96802011 
   43600   0.95001723   -6.3437782    9.2028856  0.017589613  0.019273498            6    5.3943544    895.25963   0.96508317 
   43700   0.93733657      -6.3857    9.1802929  0.017506279  0.019271441            4    5.3628934    891.05168   0.96964073 
   43800   0.97457762   -6.3307777    9.1978369  0.017499689  0.019269109            4    5.4698724    894.50695   0.96589524 
   43900   0.92279399   -6.2981551    9.2154713  0.017493301  0.019266432            2    5.6757187    893.92382   0.96652531 
   44000   0.97063834   -6.4514001    9.1703241  0.017368038  0.019262978            2     5.422794    886.30689   0.97483164 
   44100   0.97506477   -6.3893559    9.2142914  0.017411737  0.019259002            5    5.8082085    884.03572   0.97733608 
   44200   0.94785788   -6.3161451     9.306649  0.017546472  0.019257039            3    5.7877032    890.48869   0.97025376 
   44300   0.96990749   -6.2998174    9.3481281  0.017584891  0.019255755            3    5.6966118    894.16137   0.96626854 
   44400   0.93594913   -6.2194471    9.3652012  0.017577329  0.019255431            2    6.3189699    890.20842   0.97055923 
   44500   0.98688865   -6.3493303    9.4163004  0.017633521  0.019255166            5    5.6697976    890.25964   0.97050339 
   44600   0.98997738   -6.3797332    9.4286689  0.017617094  0.019255033            4    5.5273839     890.2371   0.97052796 
   44700   0.95737535   -6.3180597    9.5127893  0.017734506  0.019255383            5      5.74379    891.62769   0.96901432 
   44800   0.98970495   -6.3215432    9.5610235  0.017784642  0.019257427            7    5.5488663    894.17654   0.96625215 
   44900   0.98736871   -6.2598274     9.593401  0.017805124  0.019259317            3    5.5820372    898.83914   0.96123985 
   45000   0.98827019   -6.3425634    9.5708044  0.017723712  0.019260919            4    5.7318584    890.54258   0.97019505 
   45100   0.95259416   -6.3292023    9.5232338  0.017596515  0.019261228            2    6.0998638    885.01987   0.97624927 
   45200    0.9640377   -6.3334992    9.5460052  0.017599567   0.01926065            3    6.0454481    886.16749   0.97498499 
   45300    1.0038966    -6.299787    9.6320086  0.017718927  0.019260977            5    5.7134222    893.70264   0.96676452 
   45400   0.96611491   -6.3476001    9.6138042  0.017646483  0.019261483           11    5.6791353    890.76921   0.96994821 
   45500   0.96591152   -6.3227761    9.5786895  0.017543387  0.019260166           10    5.7949457    890.45201   0.97029373 
   45600   0.92571447     -6.31099    9.6606805  0.017654752  0.019258429            7    5.4778485    894.78707   0.96559286 
   45700   0.99366817   -6.3071245    9.7402581  0.017761229  0.019258481            3    5.5689553    895.41041   0.96492066 
   45800   0.97578712   -6.3546147    9.7218019  0.017688868  0.019259458            7     5.821327    888.13931   0.97282035 
   45900   0.94684539   -6.3482232    9.7260345  0.017658015  0.019259207            9    5.7983553    889.08388   0.97178682 
   46000   0.99679827   -6.4112119    9.8012402   0.01775587  0.019259317            5    5.1707081    893.32813   0.96716982 
   46100   0.90414637   -6.3509366    9.7926986  0.017701913  0.019258671            2    5.6067811    889.45018   0.97138662 
   46200   0.96403764   -6.3775418    9.8377382  0.017744838  0.019258713            5    5.5279115    890.39942   0.97035104 
   46300   0.97297333   -6.3604861    9.8548215   0.01773726  0.019259358            1    5.7695525      887.798   0.97319435 
   46400   0.97138491   -6.3603727    9.8693774  0.017725175  0.019259733            3    5.8347416    886.11066   0.97504752 
   46500   0.94602019   -6.3674547    9.9240718  0.017785075  0.019260427            3    5.6599008    888.81553   0.97208022 
   46600    1.0006202   -6.3945909    9.9204681  0.017740465  0.019260652           11    5.3202692    892.59062   0.96796895 
   46700    1.0274614   -6.3580635    9.9751253  0.017800009  0.019261178            6    5.4925135    893.09477   0.96742252 
   46800   0.96366347   -6.3761476    9.9848415  0.017779276   0.01926211            4    5.5254309    890.84276   0.96986813 
   46900   0.97565056   -6.3005837    10.059461  0.017873954  0.019264287            5    5.7740781    892.86025   0.96767663 
   47000   0.96672121   -6.3558826     10.05735   0.01783218  0.019265794           10    5.6324406    890.13192   0.97064264 
   47100   0.95719713   -6.2957384     10.10364   0.01787622  0.019267838            5    5.8558413    891.87201   0.96874886 
   47200   0.94028666   -6.2893977    10.120854   0.01786874  0.019269761            2    5.7289207    892.99017   0.96753585 
   47300   0.94876457   -6.3695252     10.11128  0.017814095  0.019271028            3    5.6561235    888.04993   0.97291827 
   47400   0.98211363   -6.4327657    10.169817  0.017879425  0.019272233            4    5.0158735    893.89791   0.96655333 
   47500    1.0014699   -6.3807016    10.193799  0.017883858  0.019273052            5    4.8624363     901.1319   0.95879415 
   47600   0.97200055   -6.3651214    10.223695  0.017898625  0.019273551            2    4.9260106    901.10819   0.95881939 
   47700   0.94044554   -6.3575524    10.242604  0.017894137  0.019274006            3    5.2870591    895.68773   0.96462191 
   47800   0.96275928    -6.304481    10.191782    0.0177681  0.019274259            6    5.9733731    888.76625   0.97213412 
   47900   0.96447364   -6.4014831     10.13078  0.017624877  0.019273432           10    5.8711737     883.2965   0.97815399 
   48000   0.98431934   -6.3863269    10.174629  0.017664287  0.019271748            4    5.6780527     887.7767    0.9732177 
   48100   0.98442538   -6.3247208    10.225765  0.017716155   0.01927134            2     6.002822    886.91432   0.97416399 
   48200   0.97713684    -6.352151    10.258596  0.017736161  0.019271096            4    5.7029353      890.195   0.97057386 
   48300    1.0345306   -6.3717008    10.263438  0.017707794  0.019270662            4    5.4107494    893.20921   0.96729858 
   48400   0.95891899   -6.2622169    10.292886  0.017721911  0.019269278            6    5.6071137     898.3825   0.96172844 
   48500   0.95687484   -6.2462612    10.329101  0.017747597  0.019268751            6    5.9383467    893.86473   0.96658921 
   48600   0.91117412   -6.2836606    10.334635  0.017720568  0.019267428            3    5.9291277    890.41567   0.97033333 
   48700   0.98556175   -6.3079791     10.41139   0.01781552  0.019267297            4    5.6272893    894.98749   0.96537662 
   48800   0.93163958   -6.3079378      10.4609  0.017863558  0.019267628            6    5.4207195    897.35271   0.96283211 
   48900   0.97009656   -6.2708291    10.457178  0.017820685  0.019268063            4    5.7562332    894.70381   0.96568271 
   49000   0.94272462    -6.337226    10.531481  0.017910682  0.019268546            5     5.258643    896.58876    0.9636525 
   49100   0.93488504   -6.3054178    10.556231   0.01791621   0.01926901            4    5.3504173    897.01473   0.96319489 
   49200   0.96513543    -6.310548    10.644197  0.018028789  0.019270215            1    4.8589059    905.97361   0.95367016 
   49300    1.0039485   -6.3274764    10.692489  0.018073849  0.019272389            5    4.9146716    904.09841   0.95564818 
   49400   0.93915826   -6.3342348    10.704829  0.018058078  0.019274861            7    5.0344714    900.70073   0.95925314 
   49500   0.99273711   -6.3370073    10.708877  0.018028412  0.019277031            4    5.1098579    900.25853   0.95972431 
   49600   0.97176165   -6.2840913    10.712884  0.017998797  0.019278986            4    5.4624821    898.67979   0.96141029 
   49700   0.96397099   -6.3545012    10.656489  0.017868023  0.019280157            3    5.6907392    889.97532   0.97081344 
   49800   0.90943108   -6.2920246    10.614077  0.017761173  0.019279855            5    6.0673033     887.7336   0.97326496 
   49900   0.99061555   -6.3254271    10.693142  0.017857619  0.019279958            7    5.7553803    891.59929   0.96904519 
   50000   0.99772125   -6.2768853    10.708881  0.017848134  0.019280573            3     5.886412    893.31955    0.9671791 
   50100    1.0061896   -6.2774197    10.674746  0.017755732  0.019281187            2    5.9466645    892.41284   0.96816178 
   50200   0.94731387    -6.286625    10.640275  0.017663139   0.01927999            9    6.2746588     886.8067   0.97428222 
   50300    1.0114219   -6.2867782    10.673926  0.017683774   0.01927876            9    6.4933395    883.32108   0.97812677 
   50400    1.0137086    -6.282451    10.690613  0.017676277  0.019278284            5    6.4246071    885.04508   0.97622146 
   50500   0.96799384   -6.2630246    10.739073  0.017721242   0.01927774            1    6.1960455    889.44875   0.97138818 
   50600   0.99494102   -6.3385498    10.782359  0.017757508   0.01927678            4    5.6355679     893.0349   0.96748738 
   50700    1.0005501   -6.2922971    10.788781  0.017733039  0.019275528            1    5.8593292    892.92309   0.96760854 
   50800   0.99827591   -6.3079516    10.761901  0.017654036  0.019274263            1    5.8573534    891.02423    0.9696706 
   50900   0.92816055   -6.2973548    10.779782  0.017648628  0.019271396            3    5.7901583    891.85846   0.96876359 
   51000   0.98919712   -6.3200313    10.851908  0.017731875  0.019269003            5     5.324762    897.87518   0.96227183 
   51100   0.98356073   -6.2981175    10.851354  0.017696272  0.019267113            2    5.8372376     891.4805   0.96917431 
   51200   0.97786719   -6.3636326    10.905025  0.017749063  0.019265027            2    5.4967041    892.01191   0.96859694 
   51300    0.9434402   -6.2611009    10.947997   0.01778427  0.019263656            4    5.7701905    895.45316   0.96487459 
   51400   0.99063887    -6.295236    10.975055  0.017793538  0.019262785            5    5.7411759    893.66925   0.96680064 
   51500   0.94308221   -6.2545436    11.023342  0.017837122  0.019262154            3    5.6939255    896.96508   0.96324821 
   51600   0.96066228   -6.3110514     11.05699  0.017856896  0.019261229            3    5.2083005    900.27439   0.95970741 
   51700   0.93554763   -6.3715746    11.028423  0.017776311  0.019259334            3    5.2330956     895.1221   0.96523145 
   51800   0.95967443    -6.352579    11.067123  0.017804252   0.01925754            5    5.3498786    895.41952   0.96491084 
   51900    1.0180345   -6.3098209    11.082898  0.017795275    0.0192561            6    5.4109842    898.05926   0.96207459 
   52000   0.93985311   -6.3164245     11.08852  0.017770065  0.019254696            3    5.8320539    890.08549   0.97069327 
   52100   0.97866417   -6.2984124     11.11209  0.017773656  0.019253798            5    5.8480129    891.76933   0.96886041 
   52200   0.98686496   -6.3417421    11.073647  0.017678236  0.019251972            4     5.663489     890.8199   0.96989302 
   52300    0.9604868   -6.3560482    11.105239  0.017694771  0.019249345            3    5.6064503    891.02808   0.96966641 
   52400   0.96751585   -6.3208996    11.144655  0.017723687  0.019247228            5    5.5342027    894.63288   0.96575927 
   52500    1.0130126   -6.3624225     11.18864  0.017759746   0.01924495            2    5.2135863    897.19228   0.96300428 
   52600   0.91884482   -6.3250338    11.216696  0.017770431  0.019242979            3    5.4723153    894.66981   0.96571941 
   52700   0.95274456   -6.3108211     11.18443   0.01768569   0.01924008            4    5.5075862    895.48565   0.96483959 
   52800   0.97764693   -6.3020742    11.216578  0.017702932  0.019237117            7    5.4035064    898.73086   0.96135566 
   52900    0.9562935   -6.3649213    11.234122  0.017697105  0.019234513            3    5.4798658    892.46213   0.96810831 
   53000   0.95638312   -6.2876752     11.24684  0.017683711  0.019231585            2    5.7734684    894.22096   0.96620414 
   53100     0.977319   -6.2909332    11.306258  0.017743657  0.019229293            3    5.8401007     892.6531   0.96790119 
   53200   0.95651741   -6.3053584    11.317389   0.01772774   0.01922793            5    6.0708009    887.56462   0.97345025 
   53300    1.0045024   -6.3402907    11.418935  0.017853244  0.019227148            4    5.7923016    890.47199   0.97027196 
   53400   0.98535692    -6.323189    11.527692  0.017989532  0.019228382            3    5.8192152    891.26874   0.96940458 
   53500   0.96924733   -6.3899742    11.559798  0.018005916  0.019229302            2    5.6584171    887.20794    0.9738416 
   53600   0.97931151   -6.3331628    11.546822  0.017952149  0.019231053            9    6.0620622    885.19494   0.97605619 
   53700   0.95562049   -6.3442864    11.651128  0.018080583  0.019232826            4    5.7146973    889.63346   0.97118649 
   53800   0.99482147   -6.3373689     11.69616  0.018116728  0.019235607            6    5.5963091    892.65556   0.96789852 
   53900   0.97020955   -6.3831198    11.673516  0.018048107  0.019237901            8    5.5929229    888.51081    0.9724136 
   54000   0.95512808   -6.3610289    11.736175  0.018111381  0.019239701           16    5.3245286    895.50146   0.96482255 
   54100   0.94512221   -6.3698031    11.784197  0.018151874  0.019241607           11    5.1426747    896.70135    0.9635315 
   54200   0.91625596   -6.3845634    11.822585  0.018177406  0.019243431           16    5.0377462     896.3207   0.96394069 
   54300    0.9753596   -6.3394126    11.852845  0.018190369  0.019245371           10    5.1814784    898.24071   0.96188026 
   54400   0.95504201   -6.3175763    11.868362  0.018180701  0.019248346            4    5.4922156    895.02304   0.96533828 
   54500   0.90613342   -6.3441487    11.798497  0.018040514  0.019250194            9    5.7268508    888.76302   0.97213766 
   54600    1.0184748   -6.4339585    11.802725  0.018013927  0.019250419            4    4.8484898    897.32354   0.96286341 
   54700   0.92620169   -6.3305896    11.779321  0.017945339  0.019249793            1    5.2459805    897.19322   0.96300326 
   54800   0.95372261    -6.319231    11.795491  0.017937183   0.01924892            2    5.4260222    896.70652   0.96352594 
   54900   0.98278373   -6.3768318    11.755205   0.01784336  0.019247324            3     5.375456    893.37862   0.96711516 
   55000   0.92702901   -6.3413065    11.834051   0.01793038  0.019246327            3    5.4469864    893.35032   0.96714579 
   55100   0.98689491   -6.3282963    11.873106  0.017956905  0.019246347            8    5.4696624    895.65131   0.96466112 
   55200   0.96411888   -6.3682169    11.828277  0.017856699  0.019245592            5    5.6230076    890.12861   0.97064625 
[...]
   89400    1.0256681   -6.3317659    19.206517  0.017903167  0.019129219            6    5.8437919    889.63954   0.97117986 
   89500   0.95105937   -6.3161176    19.280654  0.017952192   0.01912615            4     5.875523    888.59544   0.97232099 
   89600   0.98227648   -6.3073363    19.285214  0.017936397  0.019123056            3     5.661013     893.7705   0.96669112 
   89700   0.93532603   -6.3082701    19.356018  0.017982179  0.019119759            7    5.4536861    896.44492   0.96380712 
   89800   0.97650539    -6.344817     19.39599  0.017999248  0.019116624            6    5.4125692    895.37901   0.96495449 
   89900    1.0394212   -6.4111547    19.380552  0.017964917  0.019113624            5    5.2413907    893.63672   0.96683583 
   90000   0.91339685   -6.3449645    19.423383  0.017984614  0.019110262            6    5.4041457    894.17066    0.9662585 
   90100   0.91301346   -6.2648328    19.583356  0.018112611  0.019107492            1    5.4447428    900.14202   0.95984854 
   90200   0.98978606   -6.3377415    19.468172  0.017986116  0.019104999            1    5.4709194     894.3662   0.96604724 
   90300   0.94999168   -6.3016388    19.458794  0.017957543  0.019102074            4    5.7402595    892.87304   0.96766277 
   90400   0.92185921   -6.2983079    19.514441  0.017988976  0.019099046            5    5.6294256    894.32255   0.96609439 
   90500   0.95060444   -6.2796737    19.467272  0.017925665  0.019096105            6     5.946723    891.24938   0.96942564 
   90600   0.98134684   -6.2291786    19.456597   0.01789606  0.019093298            7     6.112025    893.41749   0.96707308 
   90700   0.94431828   -6.2390141     19.51981  0.017934408  0.019090478            5     6.106023    892.85916   0.96767782 
   90800    1.0030641   -6.2319632    19.551029  0.017943308  0.019087774            3    6.2591977    891.91689   0.96870012 
   90900   0.98527763   -6.2757556    19.603815  0.017971961  0.019085409            3    5.7960139    894.59358    0.9658017 
   91000   0.95268831   -6.3309461    19.673362  0.018015899  0.019082837            2    5.3361158    896.66391   0.96357173 
   91100   0.96597616   -6.2686948    19.683812  0.018005682  0.019080032            2    5.6331065    897.81263   0.96233888 
   91200    0.9534104    -6.369932     19.70909  0.018009036  0.019077196            5    5.2905332    895.07016   0.96528746 
   91300   0.97332362   -6.3316825    19.792242  0.018065208  0.019074697            2    5.5843276    893.14059    0.9673729 
   91400   0.90186848   -6.3028214    19.807456  0.018059314  0.019072595            2    5.8219681    891.19451   0.96948532 
   91500   0.97314496   -6.3324915    19.821636  0.018052492  0.019070456            2    5.8462818    888.96928    0.9719121 
   91600   0.98433534   -6.3455555    19.862044  0.018069545  0.019068531            2     5.828121    889.12275   0.97174434 
   91700   0.99824607   -6.3001344    19.893708  0.018078615  0.019066939            1    6.0983981    888.62323   0.97229058 
   91800     1.059024   -6.2948002    19.947534  0.018107783  0.019065689            2    6.0924019    889.50733    0.9713242 
   91900    1.0104122   -6.3068204    19.948436  0.018088897  0.019064657            3    5.9580217     890.0856   0.97069316 
   92000   0.93564192   -6.2659102    19.867457  0.017995885  0.019062854            2      6.26801    887.20265    0.9738474 
   92100   0.97074244    -6.313691    19.922688  0.018026319  0.019060695            3    5.9692455    888.53765   0.97238424 
   92200   0.98523567   -6.3128367    20.066201  0.018136479  0.019058848            1    5.3785674    898.55632    0.9615424 
   92300   0.93261201   -6.2767368    20.105441  0.018152258  0.019056994            2    5.4381538    899.32356   0.96072208 
   92400   0.96709868   -6.3094367    20.019222  0.018054854  0.019054981            2    5.6422493    893.28423   0.96721734 
   92500   0.99749232   -6.3246393    20.097476  0.018105834  0.019053087            4    5.6112806     893.9324   0.96651604 
   92600    1.0085415   -6.2724485     20.17075  0.018152222  0.019051629            2    5.5509054    898.32897   0.96178574 
   92700   0.96942446   -6.3529519    20.190514  0.018150408  0.019050036            1    5.3546222     896.0576   0.96422373 
   92800   0.97233135   -6.3274942    20.205268  0.018144098  0.019048291            4     5.527496     894.8594   0.96551481 
   92900   0.90840549   -6.3415236    20.162455  0.018086163  0.019046385            3    5.7044893    889.32036   0.97152841 
   93000   0.98729189   -6.3639577    20.300319   0.01819025  0.019044896            4    5.5421413    891.69458   0.96894163 
   93100    0.9903436   -6.3201572    20.356715  0.018221191  0.019044126            8    5.5779101    894.97695   0.96538799 
   93200    1.0056016   -6.3223905    20.362102  0.018206458  0.019043271            9    5.6043985    894.14137   0.96629015 
   93300   0.95089087   -6.3369183    20.318372  0.018147885  0.019042248            5    5.8462159    887.77609   0.97321838 
   93400   0.96318652   -6.3117523     20.32176  0.018131477   0.01904115            7    6.1430335    885.38837   0.97584295 
   93500   0.98214977   -6.2920256    20.303877  0.018096147  0.019040195            4    6.4460495    882.48853   0.97904955 
   93600   0.95620265   -6.2799483    20.244366   0.01802383  0.019038868            3    6.5292543    881.81435   0.97979808 
   93700    1.0094115   -6.3076512    20.364827  0.018111728  0.019037637            3    6.2258658    886.58139   0.97452982 
   93800    1.0072818   -6.3212179    20.426666  0.018147358  0.019036707            2    5.9931007    887.95529   0.97302197 
   93900   0.94196191   -6.2728784    20.435434  0.018135813  0.019035656            9    6.0515165    891.01098   0.96968502 
   94000   0.96572662   -6.2323029    20.417858  0.018100938  0.019034377            5    6.1004538     893.2428   0.96726221 
   94100   0.93958442   -6.2624175    20.453079  0.018112893  0.019032989            4    6.0706969    889.96859   0.97082078 
   94200   0.95627057   -6.3261414    20.501506  0.018136506  0.019031686            6     5.740801    890.85553   0.96985423 
   94300    0.9898663     -6.30187    20.530648  0.018143026  0.019030405            3    5.8718242    891.25827   0.96941597 
   94400   0.91280686   -6.2909507    20.548805  0.018139835  0.019029165           14    5.9067762    891.17283   0.96950891 
   94500   0.98384906   -6.3105125    20.569984  0.018139316  0.019027904           13    6.0342703    888.78297   0.97211583 
   94600    1.0142054   -6.3128677    20.475632  0.018037026  0.019026651           10     6.272721    884.58912   0.97672465 
   94700   0.98247014   -6.2840252    20.468606  0.018011797  0.019025188            6    6.5576606    882.15654   0.97941801 
   94800   0.97526098   -6.3517759    20.543711  0.018058817  0.019023717           10    6.0804899    884.39182   0.97694255 
   94900    0.9948041    -6.395265    20.518882  0.018017986  0.019022067            6    5.9141114     883.4109   0.97802733 
   95000    1.0359135   -6.3807984    20.613665  0.018082162  0.019020352            4      5.47032    891.65301    0.9689868 
   95100   0.96712385   -6.3594796    20.615403  0.018064671  0.019018403            3    5.8217081    887.68416   0.97331916 
   95200   0.99195603   -6.3318361     20.57525  0.018010548  0.019016712            8    6.0525403    886.11137   0.97504674 
   95300   0.93247651    -6.310402    20.650239  0.018057222  0.019014674            5    5.9232085    888.88122   0.97200839 
   95400   0.96288886    -6.259468    20.779942  0.018151592  0.019013237            3    5.9590493     893.1304   0.96738393 
   95500   0.98799303   -6.2842765    20.773785  0.018127212  0.019012159            4    5.8514476    892.94592    0.9675838 
   95600   0.97580884   -6.3566568    20.852559  0.018176917  0.019010912            2    5.4080936    893.82666   0.96663037 
   95700   0.99037547   -6.3257383    20.923855  0.018220006  0.019009747            3    5.4243534    896.63847   0.96359907 
   95800   0.99147504    -6.312937    20.902762  0.018182639  0.019008579            7    5.5377662    896.10616   0.96417147 
   95900   0.94150451   -6.3038378     20.92089  0.018179431  0.019007406            9     5.749522    892.95649   0.96757234 
   96000   0.95922749   -6.3692348    21.081134  0.018299596  0.019006345            3    5.1541426      896.944   0.96327084 
   96100   0.96650549   -6.4244964    21.108301  0.018304111  0.019005459            5    4.7318926    898.50974   0.96159225 
   96200   0.93875342   -6.3378005    21.086723  0.018266392  0.019004205            4    5.2649954    897.66531   0.96249682 
   96300   0.95115192   -6.2648454    21.212603  0.018356354  0.019003549            6    5.5107212    899.71715    0.9603018 
   96400   0.95542391   -6.2822944    21.202369  0.018328465  0.019003298            3    5.3897934     899.4016   0.96063872 
   96500   0.96514172   -6.4024328    21.138847  0.018254617  0.019002458            3    5.0049152    896.31209   0.96394995 
   96600   0.94550032   -6.3619607    21.130256  0.018228309  0.019001227            2     5.344185    894.05518   0.96638331 
   96700   0.99384459   -6.3078507    21.159747  0.018234874  0.019000315            2    5.6300061    894.36011   0.96605381 
   96800   0.95989786   -6.3091658    21.089672  0.018155709  0.018999061            2    5.7849864    891.61375   0.96902947 
   96900     0.965613   -6.3468217    21.167248  0.018203687  0.018997779            2      5.35401    895.02592   0.96533517 
   97000    0.9980773   -6.3356861    21.195008   0.01820877  0.018996638            3    5.4515496    895.14748   0.96520408 
   97100    0.9901333   -6.3500568    21.103802  0.018111742  0.018995498            4    5.6777169    890.63316   0.97009637 
   97200    1.0097865   -6.2917946    21.311346  0.018271044  0.018994596            5    5.5581294     897.2258    0.9629683 
   97300   0.98233732   -6.3039563    21.276295  0.018222246  0.018993901            5    5.8264994     891.3233   0.96934524 
   97400   0.97245551   -6.3369667    21.309043  0.018231556  0.018993139            3    5.6898096    891.15765   0.96952542 
   97500   0.94160878   -6.3597191    21.240755  0.018154491   0.01899219            3    5.6518957     889.0229   0.97185348 
   97600   0.96582411   -6.3175201    21.207701  0.018107668  0.018990777            5    6.0808997    886.45859   0.97466481 
   97700    1.0036882   -6.3088938    21.323699  0.018188075  0.018989787            4    5.6917611     893.9219   0.96652739 
   97800   0.96854982   -6.2780176    21.287724  0.018138824  0.018988688            8     5.952104    891.95921   0.96865416 
   97900    0.9535345   -6.3020004      21.3596  0.018181477  0.018987556            9    5.7466281     892.1183   0.96848142 
   98000   0.98118698   -6.2774208    21.437535  0.018229196  0.018986626            8     5.517413    899.36988    0.9606726 
   98100   0.94877748   -6.3037633     21.46182  0.018231244  0.018985576           12    5.3445509    898.68399    0.9614058 
   98200   0.97457872   -6.3500494    21.384353  0.018146939  0.018984143           11     5.506661    893.27783   0.96722427 
   98300   0.93444296   -6.3441033    21.536571  0.018257521  0.018982797           11    5.1804476    898.61241   0.96148238 
   98400   0.98178022   -6.3407566    21.622088  0.018311389  0.018981792            4    5.0090809    901.85548   0.95802489 
   98500   0.96086422   -6.3802914      21.4989  0.018188579  0.018980778            1    5.1459175    895.62386   0.96469069 
   98600   0.98710069   -6.4588748    21.465302  0.018141736  0.018979041            3    4.9937081    892.42426   0.96814939 
   98700   0.98478111   -6.3812178    21.553055  0.018197446  0.018977679            5    5.3456995    892.76352   0.96778148 
   98800   0.97979719   -6.3659784    21.624939  0.018239658  0.018976599            6    5.5115697    891.85397   0.96876846 
   98900   0.92757935   -6.3341259     21.57398  0.018178277  0.018975737            2    5.9196263    886.79121   0.97429924 
   99000   0.99435308   -6.3708538    21.610407  0.018190578  0.018974801            4    5.7471236    888.05867   0.97290869 
   99100   0.98429202   -6.3172051    21.742723  0.018283487  0.018974346            2    5.7898162      892.452    0.9681193 
   99200   0.99651464   -6.3415333    21.701163  0.018230143  0.018973945            5    5.7713789    890.26372   0.97049895 
   99300   0.95267417   -6.3498563    21.665837  0.018182139  0.018973162            1    5.9264613     886.9269   0.97415018 
   99400   0.97727008   -6.2680088    21.669619  0.018167018  0.018972205            3     6.111798     889.5473   0.97128056 
   99500     1.017172   -6.3366187    21.802438  0.018259998  0.018971695            3    5.4917568    895.70716   0.96460098 
   99600   0.93906742   -6.3187692    21.841834  0.018274627  0.018971095            3     5.454276    895.77128   0.96453193 
   99700   0.93571146   -6.2555433    21.936222  0.018335191  0.018970447            6     5.589237    898.23847   0.96188265 
   99800    0.9903768   -6.3502193    21.817258  0.018217483  0.018969761            3    5.3267074    896.08174   0.96419776 
   99900   0.92698107   -6.3402955    21.802412  0.018186863   0.01896831            3     5.202167    897.67238   0.96248924 
  100000   0.93656086   -6.2960673    21.831381  0.018192817  0.018966903            3    5.4507087    896.82812    0.9633953 
  100100   0.91028061    -6.377015    21.801563   0.01814982  0.018965374            2    5.2990574    893.44363   0.96704478 
  100200   0.95764645   -6.3571478     21.91266  0.018224102  0.018964003            5    5.3003912    895.02581   0.96533529 
  100300   0.95510739   -6.3306709    21.997241  0.018276206  0.018963101            5    5.3122334    896.47272   0.96377724 
  100400    0.9815132   -6.2674334    22.046747  0.018299093  0.018962469            4    5.6535608    896.81694   0.96340732 
  100500   0.96963847   -6.2895972    22.010472  0.018250806  0.018961975            2    5.4942913    897.62575   0.96253923 
  100600   0.92394975   -6.3059617     21.86108  0.018108913  0.018960753            1    5.9920193    887.70771   0.97329334 
  100700   0.99072819   -6.3180966     21.87655  0.018103732  0.018959361            2    5.8238001    890.85647    0.9698532 
  100800    1.0308626    -6.352778    21.941845  0.018139752  0.018958216            6    5.5524605    893.05109   0.96746985 
  100900   0.96087727   -6.3361798    21.922993  0.018106205  0.018956901            2    5.8574861    888.30442   0.97263954 
  101000   0.95898991   -6.2693421    22.020459  0.018168695   0.01895597            4    6.1790856     889.8288    0.9709733 
  101100    1.0010489   -6.2787786    21.990885  0.018126347  0.018955285            7     6.240894    887.52784   0.97349059 
  101200    0.9447497   -6.2978995    22.038873  0.018147952  0.018954232            8    6.0039618    889.30239   0.97154804 
  101300   0.95681852   -6.3254218    22.172519  0.018239979  0.018953266            5    5.6003448    893.62882   0.96684438 
  101400    1.0053506   -6.2803448     22.28017  0.018310462  0.018953006            6    5.7771475    894.97049   0.96539496 
  101500   0.99485951   -6.3096764    22.250202  0.018267817  0.018953023            2    5.9334198    889.63166   0.97118846 
  101600   0.95711597   -6.3141708    22.166578  0.018181249  0.018952454            1    6.0983754    886.63524   0.97447063 
  101700   0.96825387   -6.3072738    22.290279  0.018264732  0.018951928            1     6.053522    888.17731   0.97277873 
  101800   0.99154367   -6.3399439    22.340583  0.018287969  0.018951765            2    5.8524882    888.80618   0.97209045 
  101900   0.92506753   -6.3017479    22.455857  0.018364293  0.018951773            3    5.9081014    890.47224   0.97027169 
  102000   0.99151848   -6.3048419    22.613903  0.018475411  0.018952243            2    5.5832726    896.29956   0.96396343 
  102100   0.98259465   -6.3194998    22.508629  0.018371392  0.018952955            1    5.7783118    890.85486   0.96985495 
  102200   0.97125807   -6.3546574    22.466621  0.018319162  0.018952882            1    5.5909952    891.10036   0.96958776 
  102300   0.95362083   -6.2614993    22.533332  0.018355598  0.018952714            3    5.6897081    896.62363   0.96361502 
  102400     1.012733   -6.3517629    22.593315  0.018386487  0.018952519            1    5.1933042    898.52818   0.96157251 
  102500    0.9569819   -6.3479989    22.562432   0.01834344  0.018952335            2    5.4597778    893.34088     0.967156 
  102600   0.96168479   -6.3229219    22.584115  0.018343173  0.018952033            1    5.5793729    893.50571   0.96697759 
  102700    1.0128131   -6.3248387    22.742969   0.01845421  0.018952336            2    5.2542719    899.39789   0.96064268 
  102800   0.97160756   -6.3366997    22.696799  0.018398832   0.01895255            5    5.5185386    893.45524   0.96703222 
  102900   0.94244389    -6.294953    22.612883  0.018312992  0.018952516            3    5.8100384    892.20198   0.96839059 
  103000   0.98153776   -6.2860034    22.759475  0.018413815  0.018952396            3    5.7796618     894.1679   0.96626148 
  103100   0.98739892   -6.2585135    22.847455  0.018467067  0.018953156            2    5.6414548    897.62088   0.96254446 
  103200   0.97542925   -6.3632964    22.802258  0.018412676  0.018953398            2    5.3818137        894.2   0.96622679 
  103300   0.95115794   -6.3748953    22.816664  0.018406473  0.018953547            2    5.4152197    892.01719    0.9685912 
  103400   0.94600701   -6.4368056    22.755192  0.018339129  0.018953355            3    5.2148041     890.6437   0.97008489 
  103500   0.94639242   -6.3456523    22.845219  0.018393896  0.018952782            6    5.1949434    897.64925   0.96251403 
  103600   0.95230597   -6.3227417    22.872143  0.018397798  0.018952572           10    5.3756971     898.0727   0.96206019 
  103700   0.97526926   -6.3511013    22.805047  0.018326139  0.018952299            8    5.3416531    895.89683   0.96439676 
  103800   0.94296256   -6.3820801    22.782964  0.018290754   0.01895157            5    5.3742954    891.83978   0.96878387 
  103900   0.97749883   -6.4114848    22.798519  0.018285626  0.018950798            7    5.1717509    892.89769   0.96763606 
  104000   0.97280304   -6.3648344    22.840236  0.018301471  0.018949989            9    5.2897206    895.56022   0.96475925 
Loop time of 188.1 on 12 procs for 100000 steps with 864 atoms

Performance: 91865.916 tau/day, 531.631 timesteps/s
99.4% CPU use with 12 MPI tasks x no OpenMP threads

MPI task timing breakdown:
Section |  min time  |  avg time  |  max time  |%varavg| %total
---------------------------------------------------------------
Pair    | 9.0488     | 9.974      | 10.534     |  14.3 |  5.30
Neigh   | 0.97334    | 1.0261     | 1.0703     |   2.8 |  0.55
Comm    | 7.5802     | 8.4353     | 9.3316     |  17.5 |  4.48
Output  | 1.9032     | 1.9043     | 1.9116     |   0.2 |  1.01
Modify  | 164.71     | 165.04     | 165.87     |   2.3 | 87.74
Other   |            | 1.72       |            |       |  0.91

Nlocal:        72.0000 ave          77 max          65 min
Histogram: 1 0 0 1 3 1 1 2 1 2
Nghost:        1548.25 ave        1561 max        1534 min
Histogram: 1 2 0 1 1 2 2 1 0 2
Neighs:        8000.83 ave        8652 max        6690 min
Histogram: 1 0 0 1 0 1 3 2 1 3
FullNghs:      16004.7 ave       17258 max       14476 min
Histogram: 1 0 1 2 2 0 2 1 2 1

Total # of neighbors = 192056
Ave neighs/atom = 222.28704
Neighbor list builds = 5461
Dangerous builds = 0

#clear
#
#next RN
#
#jump SELF



Total wall time: 0:03:08
