
units lj                  # Use reduced LJ style units
atom_style atomic         # Uncharged point particles
atom_modify map hash      # Needed for indexing of clusters etc
                          # Used to be able to find where atoms are in relation to each other.

# Define a lattice with which to populate the simulation cell. With units
# set to 'lj' the second argument to the lattice command is the reduced
# density rho* and the spacings are multiples of that required to acheive
# that density. Also define a simulation cell called 'box' in lattice units
# and fill it with atoms. Here we're creating a box which is ten lattice
# constants in each direction.
lattice fcc 1.0 spacing 1 1 1                 # All equal sizes - gives the right reduced density.
Lattice spacing in x,y,z = 1.5874011 1.5874011 1.5874011

region box block 0 6 0 6 0 6 units lattice # Defines a region, "box", in lattice units
create_box 1 box                              # Creates a simulation box as specified above,
Created orthogonal box = (0.0000000 0.0000000 0.0000000) to (9.5244063 9.5244063 9.5244063)
  2 by 2 by 3 MPI processor grid
                                              # with one type of atom
create_atoms 1 box                            # Creates particles on lattice points
Created 864 atoms
  using lattice units in orthogonal box = (0.0000000 0.0000000 0.0000000) to (9.5244063 9.5244063 9.5244063)
  create_atoms CPU = 0.001 seconds


# Set the mass of the first (and only) atom type.
mass 1 1.0

# Lennard-Jones interactions between particles, 3.5 sigma cut-off. Apply
# long range tail corrections to energy and pressure and set all coefficients
# to unity since we work in reduced units here. Note that this doesn't shift
# the potential such that it goes to zero at the cutoff. That would require
# pair_modify('shift', 'yes').
pair_style lj/cut  3.5      # non-GPU version
pair_modify tail  yes
pair_coeff 1  1  1.0  1.0   # Intearaction between 1 and 1 set with epsilon = 1 and sigma = 1

write_data data.*
System init for write_data ...
Neighbor list info ...
  update every 1 steps, delay 10 steps, check yes
  max neighbors/atom: 2000, page size: 100000
  master list distance cutoff = 3.8
  ghost atom cutoff = 3.8
  binsize = 1.9, bins = 6 6 6
  1 neighbor lists, perpetual/occasional/extra = 1 0 0
  (1) pair lj/cut, perpetual
      attributes: half, newton on
      pair build: half/bin/atomonly/newton
      stencil: half/bin/3d
      bin: standard

#############################
#   M E L T   S Y S T E M   #
#############################

velocity all create 2.4 2750902 mom yes dist gaussian # Assign velocities
                                                    # Temperature 2.4, random number seed, zero linear momentum
						                                                        # Gaussian distribution

timestep 0.002   # simulation timestep
thermo 100       # output thermodynamic data every 100 steps

# Define a fix  in this case with index 1 applied to all
# particles in the simulation. This fix is for simulations
# in the anisotropic NPT ensemble. Note that we use the MTK
# correction.
fix 1 all npt temp 2.4 2.4 0.1 iso 5.68 5.68 0.5 mtk yes tchain 5 pchain 5 # Use NPT ensemble
                                                                         # Set temperature and pressure and damping
                                                                         # Numbers of thermostats in chain and in barostat
run 1000         # run for 10000 steps
Per MPI rank memory allocation (min/avg/max) = 3.633 | 3.633 | 3.634 Mbytes
Step Temp E_pair E_mol TotEng Press Volume 
       0          2.4   -8.3859253            0    -4.790092     -2.24275          864 
     100    1.3007594   -6.4407842            0   -4.4919034    5.3582762    891.69205 
     200    1.5828213   -6.0796178            0   -3.7081338    6.4338598    907.46239 
     300    1.7629056     -5.73851            0   -3.0972122    5.5953229    954.02439 
     400    1.8733232   -5.2785237            0   -2.4717912    6.0585808    994.36537 
     500      2.02574   -4.9360708            0   -1.9009777    5.7478153    1042.8978 
     600    2.2112838   -4.6895875            0   -1.3765009    5.7138268    1079.0368 
     700    2.3146746   -4.4629638            0  -0.99497044    5.6088298    1118.0222 
     800    2.4734008     -4.39503            0   -0.6892229    5.7937797    1123.7282 
     900    2.4206618   -4.2767239            0  -0.64993368    5.5531987    1146.9555 
    1000    2.3618098   -4.2459295            0  -0.70731524    5.7000582    1143.3852 
Loop time of 0.188835 on 12 procs for 1000 steps with 864 atoms

Performance: 915084.711 tau/day, 5295.629 timesteps/s
99.8% CPU use with 12 MPI tasks x no OpenMP threads

MPI task timing breakdown:
Section |  min time  |  avg time  |  max time  |%varavg| %total
---------------------------------------------------------------
Pair    | 0.067148   | 0.079784   | 0.096549   |   3.6 | 42.25
Neigh   | 0.011827   | 0.01354    | 0.016122   |   1.2 |  7.17
Comm    | 0.058975   | 0.077961   | 0.092164   |   4.2 | 41.29
Output  | 0.00018904 | 0.00019937 | 0.00024168 |   0.0 |  0.11
Modify  | 0.015392   | 0.015731   | 0.016129   |   0.2 |  8.33
Other   |            | 0.00162    |            |       |  0.86

Nlocal:        72.0000 ave          80 max          66 min
Histogram: 2 1 2 2 1 0 2 0 0 2
Nghost:        1314.75 ave        1327 max        1295 min
Histogram: 1 0 0 2 3 0 0 1 2 3
Neighs:        6211.67 ave        7136 max        5326 min
Histogram: 2 0 0 2 1 4 1 0 0 2

Total # of neighbors = 74540
Ave neighs/atom = 86.273148
Neighbor list builds = 80
Dangerous builds = 2

# Equilibrate just above the melting temperature to avoid step fn in T

fix 1 all npt temp 1.25 1.25 0.1 iso 5.68 5.68 0.5 mtk yes tchain 5 pchain 5
run 1000
Per MPI rank memory allocation (min/avg/max) = 3.634 | 3.634 | 3.634 Mbytes
Step Temp E_pair E_mol TotEng Press Volume 
    1000    2.3618098   -4.2459295            0  -0.70731524    5.7000582    1143.3852 
    1100    1.8617945   -4.5967525            0    -1.807293    5.9593679    1083.5566 
    1200      1.66126   -5.0091582            0   -2.5201524    5.9308167    1028.0056 
    1300    1.4533368   -5.3154554            0   -3.1379734    5.5185254    997.93023 
    1400    1.3100587   -5.5224566            0    -3.559643    5.2858775     978.0358 
    1500    1.3306301   -5.7450087            0   -3.7513736    5.2687861    956.68836 
    1600    1.2302857    -5.777427            0   -3.9341343     5.385203    950.58576 
    1700    1.2545134   -5.8251615            0   -3.9455694    5.6370291    940.07281 
    1800    1.2669685   -5.8434457            0   -3.9451925    6.1076728    931.13358 
    1900    1.2975362   -5.8185374            0   -3.8744858    5.5765884    942.23221 
    2000    1.2225624   -5.8503078            0   -4.0185867    5.1330896    948.19804 
Loop time of 0.1607 on 12 procs for 1000 steps with 864 atoms

Performance: 1075296.729 tau/day, 6222.782 timesteps/s
99.9% CPU use with 12 MPI tasks x no OpenMP threads

MPI task timing breakdown:
Section |  min time  |  avg time  |  max time  |%varavg| %total
---------------------------------------------------------------
Pair    | 0.070783   | 0.077343   | 0.088754   |   1.9 | 48.13
Neigh   | 0.0099313  | 0.010817   | 0.011857   |   0.6 |  6.73
Comm    | 0.044474   | 0.056736   | 0.0639     |   2.4 | 35.31
Output  | 0.00017462 | 0.00018141 | 0.00021954 |   0.0 |  0.11
Modify  | 0.013574   | 0.013855   | 0.014174   |   0.2 |  8.62
Other   |            | 0.001767   |            |       |  1.10

Nlocal:        72.0000 ave          79 max          65 min
Histogram: 1 1 0 4 0 1 1 3 0 1
Nghost:        1466.08 ave        1476 max        1447 min
Histogram: 1 1 0 0 2 0 0 4 1 3
Neighs:        7466.67 ave        8131 max        6694 min
Histogram: 1 0 2 0 3 1 3 0 0 2

Total # of neighbors = 89600
Ave neighs/atom = 103.70370
Neighbor list builds = 67
Dangerous builds = 0


# Small amount of linear quench

fix 1 all npt temp 1.25 ${temp} 0.1 iso 5.68 5.68 0.5 mtk yes tchain 5 pchain 5
fix 1 all npt temp 1.25 0.67 0.1 iso 5.68 5.68 0.5 mtk yes tchain 5 pchain 5
run 2000
Per MPI rank memory allocation (min/avg/max) = 3.634 | 3.634 | 3.634 Mbytes
Step Temp E_pair E_mol TotEng Press Volume 
    2000    1.2225624   -5.8503078            0   -4.0185867    5.1330896    948.19804 
    2100    1.2402451   -5.8681249            0   -4.0099104    5.3964807    941.01139 
    2200    1.2124145   -5.9176034            0   -4.1010864     5.749405    929.20127 
    2300     1.178432   -5.9323563            0   -4.1667543    6.3279376     917.7287 
    2400    1.1651626   -5.9890924            0   -4.2433715    5.8752029    920.38861 
    2500    1.1015965   -6.0057888            0   -4.3553065    5.9006938       916.46 
    2600    1.0694923   -6.0701561            0   -4.4677743    5.6459709    915.06542 
    2700    1.0640965   -6.1339446            0   -4.5396472    5.5191843    912.24341 
    2800    1.0088714   -6.1188936            0   -4.6073381    5.8340767    908.27028 
    2900    1.0300656   -6.1892876            0   -4.6459775    5.8728761    901.13448 
    3000   0.98801255   -6.2013233            0   -4.7210197    5.9914651    897.27206 
    3100   0.98338373   -6.3102529            0   -4.8368846    5.7753153    892.65637 
    3200   0.90427307   -6.3264997            0     -4.97166    5.5584886    893.16065 
    3300   0.87939272   -6.3963168            0   -5.0787544    5.5281233    887.78992 
    3400    0.8696518   -6.4730041            0   -5.1700362    5.7033988    878.45419 
    3500   0.82930771    -6.501015            0   -5.2584932    5.7504717    875.67531 
    3600   0.81506821    -6.545813            0   -5.3246258    5.6606411    873.51685 
    3700   0.78180492   -6.5753916            0   -5.4040415    5.7759322    868.63647 
    3800   0.73973193    -6.627868            0   -5.5195543    5.4957632    868.32603 
    3900   0.70288771   -6.6956678            0   -5.6425565    5.2463062    866.06521 
    4000   0.71028321   -6.7447315            0   -5.6805399    5.3881693    860.70528 
Loop time of 0.351476 on 12 procs for 2000 steps with 864 atoms

Performance: 983281.431 tau/day, 5690.286 timesteps/s
99.9% CPU use with 12 MPI tasks x no OpenMP threads

MPI task timing breakdown:
Section |  min time  |  avg time  |  max time  |%varavg| %total
---------------------------------------------------------------
Pair    | 0.15495    | 0.1701     | 0.1986     |   2.7 | 48.40
Neigh   | 0.016767   | 0.018239   | 0.020226   |   0.7 |  5.19
Comm    | 0.098787   | 0.12896    | 0.14497    |   3.3 | 36.69
Output  | 0.00036942 | 0.00038391 | 0.0004657  |   0.0 |  0.11
Modify  | 0.028447   | 0.029081   | 0.029764   |   0.3 |  8.27
Other   |            | 0.004706   |            |       |  1.34

Nlocal:        72.0000 ave          75 max          69 min
Histogram: 2 2 0 0 0 2 4 0 0 2
Nghost:        1571.25 ave        1591 max        1554 min
Histogram: 1 0 4 0 3 1 0 1 0 2
Neighs:        8310.58 ave        9103 max        7454 min
Histogram: 1 0 3 1 1 1 1 1 2 1

Total # of neighbors = 99727
Ave neighs/atom = 115.42477
Neighbor list builds = 109
Dangerous builds = 0

#############################
# F R E E Z E  S Y S T E M  #
#############################

# Define solid atoms. This closely follows ten Wolde  Ruiz-Montero and Frenkel  Faraday Discuss  1996  104  93-110
# Compute components of the per-atom q6 vector
compute q6 all orientorder/atom degrees 1 6 components 6 nnn NULL cutoff 1.3 # compute the Q6 parameter.
                                                                             # Use all neighbours within 1.3 unit cell.

# get number of connections
compute coord_number all coord/atom orientorder q6 0.5

# An atom is solid if it has 8 or more connections (of a possible 14)
variable is_solid atom c_coord_number>=8
group solid dynamic all var is_solid    # Must be dynamic to update
dynamic group solid defined

# do clustering
compute cluster solid cluster/atom 1.3 # Create a cluster where all atoms within are solid and max 1.3 units from another member

# define chunks one chunk per cluster
compute clus_chunks solid chunk/atom c_cluster nchunk every compress yes  # Says which atoms are in which chunk

# count the size of each chunk
compute size_chunks solid property/chunk clus_chunks count


# Find the maximum entry in the vector of chunk sizes
variable max_n equal max(c_size_chunks)


# Thermo style which includes this variable
# thermo_style custom step temp pe vol v_max_n

thermo ${N}  # Print the thermo information every 100 steps
thermo 100  

# Reset the npt fix at a lower temperature (below freezing)

compute myRDF all rdf 100
fix 2 all ave/time 1 50 100 c_myRDF[*] file pcf.rdf mode vector


compute msd all msd com yes
variable twopoint equal c_msd[4]/6/(step*dt+1.0e-6)
fix 9 all vector 10 c_msd[4]
variable fit equal slope(f_9)/6/(10*dt)
thermo_style custom step temp pe c_msd[4] v_twopoint v_fit v_max_n press vol density


fix 1  all npt temp  ${temp} ${temp}  0.1  iso  5.68  5.68  0.5  mtk yes tchain  5  pchain  5
fix 1  all npt temp  0.67 ${temp}  0.1  iso  5.68  5.68  0.5  mtk yes tchain  5  pchain  5
fix 1  all npt temp  0.67 0.67  0.1  iso  5.68  5.68  0.5  mtk yes tchain  5  pchain  5

dump dmp2 all dcd ${N} traj.dcd
dump dmp2 all dcd 100 traj.dcd
dump dmp3 all dcd ${N} traj_unwrap.dcd
dump dmp3 all dcd 100 traj_unwrap.dcd
dump_modify dmp3 unwrap yes


# fix rnuntil all halt ${N} v_max_n >= 3980 error soft message no   # Stop when solidified

run 100000 # 5000000  # Run for this many steps
Neighbor list info ...
  update every 1 steps, delay 10 steps, check yes
  max neighbors/atom: 2000, page size: 100000
  master list distance cutoff = 3.8
  ghost atom cutoff = 3.8
  binsize = 1.9, bins = 6 6 6
  5 neighbor lists, perpetual/occasional/extra = 1 4 0
  (1) pair lj/cut, perpetual
      attributes: half, newton on
      pair build: half/bin/atomonly/newton
      stencil: half/bin/3d
      bin: standard
  (2) compute orientorder/atom, occasional
      attributes: full, newton on
      pair build: full/bin/atomonly
      stencil: full/bin/3d
      bin: standard
  (3) compute coord/atom, occasional
      attributes: full, newton on
      pair build: full/bin/atomonly
      stencil: full/bin/3d
      bin: standard
  (4) compute cluster/atom, occasional
      attributes: full, newton on
      pair build: full/bin/atomonly
      stencil: full/bin/3d
      bin: standard
  (5) compute rdf, occasional, copy from (1)
      attributes: half, newton on
      pair build: copy
      stencil: none
      bin: none
Per MPI rank memory allocation (min/avg/max) = 9.702 | 9.705 | 9.708 Mbytes
Step Temp PotEng c_msd[4] v_twopoint v_fit v_max_n Press Volume Density 
    4000   0.71028321   -6.7447315 7.8886091e-31  1.64346e-32 8.3333333e+20            5    5.3881693    860.70528    1.0038279 
    4100   0.68933949   -6.7598916  0.030604027 0.00062203299  0.027726833            2    5.7960982    853.53698    1.0122584 
    4200   0.67515785   -6.7598071  0.049428425 0.00098072261  0.021788955            4     5.820689    853.02185    1.0128697 
    4300   0.65803863   -6.8011522  0.066040681  0.001279858  0.018109598            4    5.6621268    851.65011    1.0145011 
    4400   0.65529462   -6.7975919  0.078557651 0.0014878341  0.016067072            3    5.3740853    855.93977    1.0094168 
    4500   0.68230693    -6.811356  0.088870319 0.0016457465  0.014269398            7    5.1885581    858.43197    1.0064863 
    4600   0.64818156   -6.7471992  0.098633696 0.0017868421  0.012876843            4    6.4190998    845.74812    1.0215808 
    4700   0.65695313   -6.8148712   0.11186588 0.0019834374  0.012072031            4     5.684205    850.40034    1.0159921 
    4800   0.64722526   -6.8233407   0.12120701 0.0021042882  0.011543269            6    5.4190627    853.46924    1.0123388 
    4900   0.67575601   -6.8368798   0.12965626 0.0022050382    0.0109953           21    5.6067274    850.81261    1.0154998 
    5000   0.68243787   -6.8140006    0.1345481  0.002242468  0.010409002           15    5.8236969    849.47027    1.0171045 
    5100   0.68166304   -6.8035026   0.14080795 0.0023007832 0.0098312727           13    5.7111294    851.59032    1.0145724 
    5200   0.67892976   -6.8773751   0.14976453 0.0024000723 0.0093778892            4    5.4243269    850.22224    1.0162049 
    5300   0.63041725   -6.8440974   0.16101221 0.0025316384 0.0090619782            7     5.731652    847.44741    1.0195323 
    5400   0.66059973   -6.8426313   0.17039841 0.0026296049 0.0088595315           14    5.2269604    854.20047    1.0114722 
    5500   0.63077435   -6.8390848   0.18011049 0.0027289466 0.0086769393            6     5.316728    853.16919    1.0126948 
    5600   0.71709718   -6.8475595   0.18699999 0.0027827376 0.0085347206            6    6.0873566     843.9642    1.0237401 
    5700   0.68217237   -6.8503075     0.193461 0.0028283769 0.0083812116            5    5.8407332    846.23763    1.0209898 
    5800   0.65515666    -6.890495   0.19546016 0.0028083354 0.0081855396            7    5.4285174    848.36591    1.0184285 
    5900    0.6663429   -6.8786866   0.19757596 0.0027906206  0.007948869            8    5.5157136     847.9428    1.0189367 
    6000   0.68614535   -6.8579964   0.20449313 0.0028401821 0.0076988665            7    5.6427952    848.63953    1.0181001 
    6100   0.65231541   -6.8251802    0.2173583 0.0029693754  0.007542628           17    6.1571901    843.23583    1.0246244 
    6200   0.67596821   -6.8801087   0.22142204 0.0029761024 0.0074076232           16    5.4779439    849.04386    1.0176153 
    6300   0.68531797   -6.8769196   0.22084456  0.002921224  0.007251035            9    5.6053661    847.52259    1.0194418 
    6400   0.66971122   -6.8903094   0.22717445 0.0029580004 0.0070711118           10    5.8198491    843.65803    1.0241116 
    6500   0.65309443   -6.9050999   0.23084302 0.0029595257 0.0069119521           17    5.5906775    845.29274    1.0221311 
    6600   0.64428465   -6.8840378    0.2362249 0.0029826375 0.0067628397           29    5.6046981    846.25355    1.0209706 
    6700   0.68702047   -6.8250561   0.23788294 0.0029587428 0.0066029015            8    5.9192817    846.89709    1.0201948 
    6800   0.69268924   -6.8933677   0.23638426 0.0028968658 0.0064326609           14    5.7982121    844.33439    1.0232913 
    6900    0.6808009   -6.8958077   0.24040874  0.002903487 0.0062584527           21    5.7041992    844.61845    1.0229471 
    7000   0.65979318   -6.9196114   0.25164373 0.0029957584 0.0061209212           16    5.8508885    841.42033    1.0268352 
    7100   0.67379293   -6.9269923   0.25132221 0.0029497909 0.0059980992           11    5.7203124    842.33855    1.0257159 
    7200   0.67103102   -6.9383828   0.25374847 0.0029369033 0.0058610122            8    5.3132585    847.23805    1.0197842 
    7300   0.67627459   -6.8918537   0.26156078 0.0029858535 0.0057416582            9    5.6424789    845.63453     1.021718 
    7400   0.70152312   -6.8794827   0.27258621 0.0030696643 0.0056554478           13    5.8779669    843.93762    1.0237723 
    7500   0.67425632   -6.9289653   0.27677641 0.0030752933 0.0055857273           50     5.445264    845.73416    1.0215976 
    7600   0.69701852   -6.9231727   0.28219709 0.0030942661 0.0055209174           13    5.8078572    841.84566    1.0263164 
    7700    0.6713155   -6.9128862   0.28762344 0.0031128076 0.0054643371           27    6.2702069    836.64716    1.0326934 
    7800   0.67890368   -6.8837189   0.29042586 0.0031028402 0.0053979698           31    5.8111545    843.89355    1.0238258 
    7900   0.67303799   -6.9120234    0.2937842 0.0030989893 0.0053367298           11      5.28496    848.83351    1.0178675 
    8000   0.66241361    -6.943621   0.29803617 0.0031045432 0.0052751927           24    5.6333171    842.11174    1.0259921 
    8100   0.64099541   -6.9087836   0.30490452 0.0031368775 0.0052201759           33    5.9402636    840.39924    1.0280828 
    8200   0.67004026   -6.9100119   0.30331058 0.0030824244 0.0051619791           16    5.5580767    845.89714    1.0214008 
    8300   0.64716613   -6.8646681   0.30259041 0.0030380562 0.0050906908           16     5.623839    847.77491    1.0191384 
    8400    0.6595073    -6.891806   0.30442908 0.0030201296 0.0050143593           37    5.5078237    847.82302    1.0190806 
    8500   0.67396191   -6.9169214   0.31712985 0.0031091159 0.0049548641           87     5.911876    840.28589    1.0282215 
    8600   0.64463411    -6.895251   0.32107582 0.0031111997  0.004909969           86    5.9653454    841.15672     1.027157 
    8700   0.66421844    -6.899717   0.31912184 0.0030567225 0.0048553798           69    5.4427918    847.54589    1.0194138 
    8800   0.67431106   -6.9051649   0.31999187 0.0030302259 0.0047934288           41    5.4046147    847.32555    1.0196789 
    8900   0.67253147   -6.8540243   0.32175844 0.0030127193 0.0047312007           61    6.0302228    843.64416    1.0241285 
    9000   0.67866495   -6.8360556   0.33408772 0.0030934046 0.0046817199           68    5.9892764    845.85358    1.0214534 
    9100   0.67655487   -6.8661962   0.34054628 0.0031185555 0.0046412408           35    5.5497143     848.9867    1.0176838 
    9200   0.65292755    -6.881967   0.33481301 0.0030327264 0.0045961652           37    5.7569654     845.2709    1.0221575 
    9300   0.66592118   -6.8892711   0.33214089 0.0029761727 0.0045384756           34     5.520624    847.65483    1.0192828 
    9400   0.68457099   -6.8437437   0.33833154 0.0029993929 0.0044804574           31    5.8403403    847.05807    1.0200009 
    9500   0.66448625   -6.8764466   0.33947622 0.0029778614 0.0044309622           21    5.8183225    844.07938    1.0236004 
    9600   0.66841821   -6.8856253   0.34131001 0.0029627604 0.0043756199           20    5.9076095    842.94851    1.0249736 
    9700   0.67885411   -6.8913571   0.34189362 0.0029372302 0.0043206726           12     5.469935    848.41671    1.0183675 
    9800   0.69651557   -6.8522015   0.34610983 0.0029431106  0.004267456            9    5.6254437    849.14585     1.017493 
    9900   0.65591258    -6.828108    0.3549312 0.0029876362  0.004221099           26    5.7906247    848.67273    1.0180603 
   10000   0.63660555   -6.8455064   0.36434006  0.003036167 0.0041855453           19    5.7432167    847.63353    1.0193084 
   10100   0.69488841   -6.8391931   0.36247132 0.0029906873 0.0041517787           16    5.7609123    848.68417    1.0180466 
   10200   0.69658747   -6.8036734   0.36712942 0.0029994232 0.0041168341           18    5.7534017    852.03878    1.0140384 
   10300   0.69110655   -6.8675642   0.36757015 0.0029738683 0.0040801547           24    5.8462619     844.7585    1.0227775 
   10400   0.67086777   -6.8666868   0.36323613 0.0029105458 0.0040408317           34     5.745153    846.10779    1.0211465 
   10500   0.73376843   -6.8801463   0.36772829 0.0029184784 0.0039976327           13     5.482468    849.56959    1.0169855 
   10600   0.67813495   -6.8600534   0.37403054 0.0029404915 0.0039600184           16    5.9127713    844.91532    1.0225877 
   10700   0.65602202   -6.8788318   0.37908011 0.0029523372 0.0039263777           20    5.6726612    845.93845    1.0213509 
   10800   0.66214879   -6.9150105   0.38448495 0.0029667047 0.0038963763           15    5.2069122    849.64516    1.0168951 
   10900   0.66331255   -6.8593085   0.38823873 0.0029681859 0.0038683176           15    5.5746382    848.79808    1.0179099 
   11000   0.68124572   -6.8630809   0.39127282 0.0029641879 0.0038421102           31    5.7700527    846.84546     1.020257 
   11100   0.67399872   -6.8701686   0.39443844 0.0029612494 0.0038156413           59    6.2729782    839.63298     1.029021 
   11200   0.69408083   -6.9161479   0.40149392 0.0029873058 0.0037937476           24     5.604969    844.87785     1.022633 
   11300   0.65466752   -6.8956197   0.40297682 0.0029718053 0.0037724944           20    5.2219366     850.8996    1.0153959 
   11400   0.66061157   -6.8795094    0.4082918 0.0029845891 0.0037497918           22    5.9388116     842.4715     1.025554 
   11500   0.67338561    -6.862807   0.40489739  0.002934039 0.0037281937           30    5.8642496    844.63474    1.0229274 
   11600   0.65273425   -6.9068014   0.41157663 0.0029567285 0.0037042717           14    5.1903325    849.87735    1.0166173 
   11700   0.64930461   -6.8707669   0.41893501 0.0029838675  0.003685748           21    6.0279929    841.43587    1.0268162 
   11800    0.7019914   -6.8854495     0.419782  0.002964562 0.0036666278           50    5.9538423    842.40702    1.0256325 
   11900   0.67746171   -6.8747993    0.4253093 0.0029783563 0.0036498481           64    5.7462533    845.66846     1.021677 
   12000   0.65355362   -6.8910654   0.41528553 0.0028839272 0.0036266209           22    5.5294544    846.97092    1.0201059 
   12100   0.70041381   -6.9172833    0.4156625 0.0028626893 0.0035998119           43    5.5711288    845.31885    1.0220995 
   12200   0.64997584   -6.9015422   0.42605476   0.00291021 0.0035758096           31      5.87416    842.22621    1.0258527 
   12300   0.67721132   -6.9198704   0.42822406 0.0029012469 0.0035549683           19    5.6710304    843.60477    1.0241763 
   12400   0.66800421   -6.8888037   0.44104275 0.0029639969 0.0035378837           26    5.3882561    848.95337    1.0177237 
   12500    0.6591221   -6.9140838   0.44039832 0.0029359887 0.0035235149           60    5.3697693    847.37316    1.0196216 
   12600   0.64660233   -6.9042936   0.44099393 0.0029166264 0.0035063863           99    5.9109015    840.96849    1.0273869 
   12700   0.66058606   -6.8825382   0.44886939 0.0029453371 0.0034912697           90    5.9824027    842.13894     1.025959 
   12800   0.67777408   -6.9380938   0.46255073 0.0030113979  0.003480068           48     5.010155    851.16633    1.0150777 
   12900   0.63108452   -6.8739068   0.46006856  0.002972019 0.0034719095           68    5.7025337    846.17113      1.02107 
   13000   0.69706323   -6.8903618   0.46376729 0.0029728671 0.0034616691           87     6.244942    838.84146     1.029992 
   13100    0.6888428   -6.8996941    0.4588465 0.0029188708 0.0034492695           93    5.7615818    843.94494    1.0237635 
   13200   0.67129737   -6.9243335   0.46013037 0.0029048633 0.0034330495           53    5.7062773    842.46955    1.0255564 
   13300   0.66424676   -6.9897836   0.46967271 0.0029428113 0.0034198508           72     5.598984    839.24863    1.0294923 
   13400   0.64655218   -6.8933647   0.48152258 0.0029945433  0.003411232           82    5.7890555    843.13257    1.0247499 
   13500   0.66859319   -6.9005856   0.48463208 0.0029915559 0.0034036041           36    5.5513988    845.87935    1.0214223 
   13600   0.71507576   -6.9005765   0.48423539 0.0029671285 0.0033967513           96    5.4537575    847.70619    1.0192211 
   13700   0.66439577   -6.8527187   0.49167837 0.0029907442  0.003389081          109    6.3821575    838.95372    1.0298542 
   13800   0.68063458   -6.9246472   0.50021098 0.0030205976 0.0033855816           61     5.970034    839.72598    1.0289071 
   13900    0.6857037   -6.9374222   0.50210079 0.0030101965 0.0033807768           53    5.4771842    844.76136    1.0227741 
   14000   0.69944137   -6.8914568   0.51097844 0.0030415382 0.0033775201           42    5.5567884    847.28952    1.0197223 
   14100   0.68255184   -6.8692062    0.5031358 0.0029736157 0.0033733354           78    6.1276986    841.02896     1.027313 
   14200   0.67125058   -6.9232433   0.49043367 0.0028781318 0.0033621408           81    6.0538831    838.14625    1.0308463 
   14300   0.64169818   -6.9306479   0.48485901 0.0028255186  0.003344692           94     5.724807    841.35626    1.0269134 
   14400   0.66394433   -6.9410689   0.50113153 0.0029000666 0.0033292293           57    5.4894241    844.03858    1.0236499 
   14500   0.68717095   -6.9033929   0.50973381 0.0029295045 0.0033193821           88    5.4784393    846.93157    1.0201533 
   14600   0.67214381   -6.8383557   0.51481559  0.002938445 0.0033111199          117    5.9332009    845.53259    1.0218412 
   14700   0.67329432   -6.9473074   0.51810701 0.0029371145 0.0033023357          154    5.4116415    844.68885    1.0228619 
   14800    0.6567821    -6.916813   0.52601076 0.0029617722 0.0032960643          131    5.6378005    843.63687    1.0241373 
   14900   0.68030129   -6.8897136   0.53011373 0.0029648418 0.0032902584          137    5.7034099    845.11485    1.0223462 
   15000   0.66443799   -6.9039267   0.53244664 0.0029580368 0.0032840655          120    6.0338991    839.82977    1.0287799 
   15100   0.63924498   -6.9148639   0.53973883  0.002978691 0.0032787735          145    5.7962801    841.71109    1.0264805 
   15200   0.66381616   -6.9188313   0.54541017 0.0029901873 0.0032752613          138     5.111785    850.94354    1.0153435 
   15300   0.65593822   -6.8765235   0.55145103 0.0030035458 0.0032722623          141    5.6547359     846.2051    1.0210291 
   15400   0.65164863   -6.9243937   0.54921735 0.0029719553 0.0032685775          129    5.8828398     840.2122    1.0283117 
   15500   0.66026579   -6.9225372   0.54642764 0.0029377829 0.0032628874          100    5.4398321     845.8916    1.0214075 
   15600   0.67937809   -6.9308286   0.54030693 0.0028862549 0.0032542591           74    5.5125891    845.21873    1.0222206 
   15700   0.64225039   -6.9033261   0.54413563 0.0028881932 0.0032440758           78    5.9167527    841.27293    1.0270151 
   15800   0.69303168   -6.9104543   0.54549186 0.0028770667 0.0032342523          147    5.6861719     844.0859    1.0235925 
   15900   0.62027551   -6.9143583   0.54708917 0.0028673435 0.0032233178          164    5.2169896    849.18184    1.0174499 
   16000   0.66930807   -6.9418847   0.54760606 0.0028521148 0.0032125882          155    5.6850265    842.00284    1.0261248 
   16100   0.62916202   -6.9190984   0.54632384  0.002827763 0.0032021592          102     6.369788    833.89526    1.0361013 
   16200   0.67916938    -6.984005   0.54121608 0.0027840332 0.0031881426          130    5.6238278    839.67817    1.0289657 
   16300   0.67466061   -6.9170676   0.54510793 0.0027868503 0.0031737483          133    5.9266153    840.25437      1.02826 
   16400   0.64324986   -6.9713148   0.55578746 0.0028241232 0.0031614584          136    5.3688437    843.31848     1.024524 
   16500   0.65226478   -6.9675914   0.56222148 0.0028395023 0.0031511182          127    5.4359598    842.89565    1.0250379 
   16600   0.68193399    -6.974282   0.56949118 0.0028588914 0.0031424876          124    5.6756743    839.81125    1.0288026 
   16700   0.71406402   -6.9388938   0.57736538 0.0028810647   0.00313585           80     5.906405    839.92247    1.0286664 
   16800   0.68350312    -6.967353   0.57614673 0.0028578706 0.0031287985          133    5.6472913     840.6034    1.0278331 
   16900   0.65143544   -6.9494627   0.58143478 0.0028670353   0.00312047          158    5.8996202    838.09017    1.0309153 
   17000   0.69207852   -6.9575433   0.58925781 0.0028885186 0.0031145851          161    5.4223963      843.391    1.0244359 
   17100   0.67392896   -6.9489703   0.59003059 0.0028753927 0.0031088043          147    5.7302309    840.73051    1.0276777 
   17200   0.66649001    -6.946445   0.58551121 0.0028367791 0.0031019423          151    5.7437577    840.77692     1.027621 
   17300   0.65670693   -6.9556089   0.58641041 0.0028247129 0.0030934155          170    5.7351312    840.69344     1.027723 
   17400   0.68256344   -6.9846227   0.59387424 0.0028442252 0.0030859298          189    5.4312663    841.96573      1.02617 
   17500   0.68155034   -6.9582112   0.58667223 0.0027936772 0.0030764014          205    5.5226369    842.60932    1.0253862 
   17600   0.67060394   -6.9022366   0.59080878   0.00279739 0.0030675821          169    5.7764896    843.47291    1.0243364 
   17700   0.63548704   -6.9411443   0.58185423 0.0027394266 0.0030563086          208    5.7829163    839.89729    1.0286972 
   17800   0.67004827   -6.9979507   0.56996467 0.0026683739 0.0030422307          218    5.4372145    840.56669     1.027878 
   17900   0.65955373   -6.9885986   0.57792042 0.0026905047 0.0030271596          228    5.6269066    838.76382    1.0300874 
   18000   0.66734543   -6.9550037   0.58263008 0.0026973614 0.0030140429          206    5.5824106    841.93235    1.0262107 
   18100   0.67583021   -6.9441654    0.5887627 0.0027106937 0.0030016627          258    5.5834264    842.74676     1.025219 
   18200   0.68561026   -6.9838809   0.58398423 0.0026739204 0.0029883978          270     5.660401    838.84725    1.0299849 
   18300   0.65341602   -6.9748456   0.59747694  0.002720751 0.0029767597          263    5.8013831    837.54926    1.0315811 
   18400   0.66326716   -6.9960434   0.59510173 0.0026952071 0.0029652978          242    5.3531719    842.10329    1.0260024 
   18500   0.66940532   -6.9887757   0.60747031 0.0027363527 0.0029551503          231    5.5392754    840.07151    1.0284839 
   18600   0.64705268   -6.9951896   0.60145262 0.0026946801 0.0029450775          246    5.8160063    836.14017    1.0333196 
   18700   0.70940668   -7.0317218   0.60935192 0.0027154719 0.0029353128          265    5.3815094    839.66239     1.028985 
   18800   0.68704469   -6.9730333   0.61318596 0.0027180228 0.0029266148          279    5.9617571    835.84308    1.0336868 
   18900    0.6652767   -7.0081175   0.61566515 0.0027145729 0.0029181944          293    5.9515797    833.43707     1.036671 
   19000   0.67013382   -6.9960921   0.62339765 0.0027342002 0.0029099725          297    5.5689591    838.62531    1.0302575 
   19100   0.67347552   -6.9827384   0.63425542 0.0027672574 0.0029036143          316    5.6860716    839.27736    1.0294571 
   19200   0.64680826   -6.9708356   0.62327363 0.0027051806 0.0028968601          317    5.9559168    835.62443    1.0339573 
   19300    0.6117917   -7.0326363   0.62646698 0.0027049524  0.002888215          298    5.0579716    842.27171    1.0257972 
   19400   0.67223871   -7.0218469   0.63247673 0.0027168244 0.0028800508          293    5.3635144    840.22616    1.0282946 
   19500   0.67051833   -6.9894918   0.65074174 0.0027809475  0.002874753          292    5.8980337    835.91925    1.0335927 
   19600   0.68139779   -7.0120586   0.64554529 0.0027446653 0.0028706124          327    5.7369397    836.14532    1.0333132 
   19700   0.65430111   -7.0228464   0.64182013 0.0027149751 0.0028643635          331    5.9038775    833.26423     1.036886 
   19800   0.68207636   -7.0428408   0.64723782 0.0027240648 0.0028579447          316     5.553236    836.84069    1.0324546 
   19900    0.7150304   -7.0208904   0.65346593 0.0027364569 0.0028518908          324    5.9439211    833.16301    1.0370119 
   20000    0.6810911   -6.9715733   0.66207458  0.002758644 0.0028476981          308    6.2237327    832.96738    1.0372555 
   20100   0.65387809   -6.9695842   0.66740015 0.0027669989 0.0028438186          319    5.2886289    844.63826    1.0229231 
   20200   0.65744161   -7.0346861   0.65716087 0.0027110596  0.002838577          370    5.6925493    834.86822    1.0348939 
   20300   0.63809784   -6.9973723   0.66383101 0.0027250862 0.0028327744          319    5.6375207    838.06716    1.0309436 
   20400   0.66832368   -6.9832246   0.67118047 0.0027417502 0.0028284422          334    5.5679199    840.46967    1.0279966 
   20500   0.64521529   -6.9959205   0.67732806  0.002753366 0.0028238766          337    5.7139582    837.22799     1.031977 
   20600   0.65818529   -7.0160476   0.66755352 0.0027004591 0.0028190049          369    5.6206354    837.13863    1.0320871 
   20700   0.67431584   -7.0015879   0.66494034 0.0026768934 0.0028125113          352    5.6320065     837.6196    1.0314945 
   20800   0.66628908   -7.0787237   0.67054858 0.0026864927 0.0028061281          374    5.2655845    837.41651    1.0317446 
   20900   0.67037698    -7.028412   0.66654258 0.0026576657 0.0027994154          372    5.9316773    832.47027    1.0378749 
   21000   0.66373481   -6.9684157   0.67803706 0.0026906232 0.0027933375          386    6.2705461    832.24197    1.0381596 
   21100   0.66942668   -7.0057505   0.68418265 0.0027021431 0.0027880312          348    5.7080205    836.74156    1.0325769 
   21200   0.64382908   -7.0534665    0.6906323 0.0027147495  0.002783253          356    5.2027713    839.66636    1.0289801 
   21300   0.66109928   -7.0664228   0.68559963 0.0026823146 0.0027783024          398    5.4299117    835.58248    1.0340092 
   21400   0.68734155   -6.9829658   0.68574743  0.002670356 0.0027723959          400    6.1432432    832.84241    1.0374112 
   21500   0.67538105   -7.0098976   0.68844161 0.0026683783 0.0027671031          434     6.007442    832.90388    1.0373346 
   21600    0.6371235   -7.0229669   0.68088678 0.0026268779  0.002760512          451    5.6764913    835.53134    1.0340725 
   21700   0.67633583   -7.0102636    0.6785479 0.0026057906 0.0027528465          409    5.4425154    839.68784    1.0289538 
   21800   0.65613955   -7.0245084   0.69320186 0.0026498541 0.0027461371          434    5.6126284    836.73563    1.0325842 
   21900    0.6488703   -6.9983259   0.70122293 0.0026682759 0.0027407132          426    5.8513675    835.36782    1.0342749 
   22000   0.66553746   -7.0476503   0.70329228 0.0026639858  0.002735994          430    5.2366109    839.93602    1.0286498 
   22100   0.66731869   -7.1007887   0.70517647 0.0026590364 0.0027307765          466    5.5432989    833.09933    1.0370912 
   22200   0.68462066   -7.0519916   0.70053963 0.0026296532 0.0027251675          491     5.912482    831.43292    1.0391698 
   22300   0.68695485   -7.0484662   0.70251982 0.0026252609 0.0027192444          482    5.6148749    835.84593    1.0336833 
   22400   0.69763412   -7.1023536    0.6953235 0.0025867689 0.0027126378          487    5.5285374    833.47655    1.0366218 
   22500   0.66282484   -7.0624236   0.70807725 0.0026225083 0.0027060081          488    6.1553207    827.42271    1.0442063 
   22600   0.68954325   -7.0520421   0.72704404 0.0026808408 0.0027023388          499    5.7958968    832.76594    1.0375064 
   22700   0.67479308   -7.0497068    0.7281672 0.0026731541 0.0026989808          512    5.8254508     832.3735    1.0379956 
   22800    0.6499664   -7.1108787   0.72726539 0.0026581337 0.0026949204          508    5.4247403    833.12265    1.0370622 
   22900   0.64883121   -7.0574463   0.72215648 0.0026279347 0.0026903846          536    5.8272831    831.15124     1.039522 
   23000   0.70383863   -7.0532057   0.72650265 0.0026322559 0.0026856289          542     5.944897    831.09415    1.0395934 
   23100   0.69748117   -7.0801228   0.72137272 0.0026023546 0.0026805497          541    6.2412383    826.18398    1.0457719 
   23200    0.6922082    -7.159529   0.73615084 0.0026442199  0.002675965          540    5.4950306    829.83371    1.0411725 
   23300    0.6393469   -7.1182807   0.74044125 0.0026482161 0.0026722422          539    5.4218886    832.85429    1.0373963 
   23400   0.68537888   -7.1003511   0.74561034 0.0026553074 0.0026685759          528    5.4102075    834.67013    1.0351395 
   23500   0.71230864   -7.0861793   0.75182288 0.0026660385 0.0026660398          534    5.9195345    829.81348    1.0411978 
   23600   0.67759943   -7.1090705   0.75437585 0.0026637565 0.0026629166          541    5.8519544    828.38001    1.0429996 
   23700   0.66930508   -7.1507877   0.75711551 0.0026621501 0.0026602214          601    5.5639441    829.03353    1.0421774 
   23800    0.6490616    -7.073407   0.75544498 0.0026451154 0.0026568611          614    6.1369985     826.9261    1.0448334 
   23900   0.66404502    -7.142819   0.75130849 0.0026196251 0.0026531485          637    5.4058955     831.9502    1.0385237 
   24000   0.67158915   -7.1661398   0.76342757 0.0026507901 0.0026495902          634    5.4721268    829.68903     1.041354 
   24100    0.6760453   -7.1586622   0.75644383 0.0026156425 0.0026459991          652    5.5602558    828.99095    1.0422309 
   24200   0.69119203   -7.2111781   0.76845914 0.0026462091 0.0026423789          665    5.8684487    821.83139    1.0513105 
   24300   0.65174213   -7.1985284   0.78435652 0.0026898371 0.0026404272          658    5.6881743    825.16786    1.0470597 
   24400   0.63733067   -7.1603642   0.79388143 0.0027113436 0.0026395728          671    4.9112717    836.50601    1.0328677 
   24500   0.67168365   -7.1332093   0.79222948  0.002694658 0.0026386992          680    5.9438108    826.25385    1.0456835 
   24600   0.66809108   -7.1385201   0.79048576 0.0026777972 0.0026372251          713    6.5403545    818.92243     1.055045 
   24700   0.69351882   -7.2378615   0.81641834 0.0027544478 0.0026373164          748    5.5617166    823.83751    1.0487505 
   24800   0.64461493   -7.2431793   0.81154475 0.0027269648 0.0026381714          745    5.7408667    821.34597    1.0519319 
   24900   0.67684226   -7.2583732   0.82444639 0.0027591913 0.0026387852          740    5.5037839    823.64909    1.0489904 
   25000   0.71013866   -7.2222001   0.83008627 0.0027669542 0.0026403199          740    5.9511885    821.11295    1.0522304 
   25100   0.67475425   -7.2192648   0.83337379 0.0027668452 0.0026417521          754    6.0598909    819.85772    1.0538414 
   25200   0.65142724   -7.2619592   0.84186942 0.0027839597 0.0026434846          759    5.2163635    826.41292    1.0454822 
   25300   0.66893405   -7.2234292      0.85204 0.0028064558 0.0026456902          778    5.5377427    824.89163    1.0474103 
   25400   0.65153312   -7.2551525   0.85528592 0.0028060561  0.002648448          791    5.8838815    819.17441    1.0547205 
   25500    0.6407117    -7.278565   0.85326206  0.002788438 0.0026508286          788    5.3887355    823.17926    1.0495891 
   25600   0.66996933   -7.2416864   0.85448597 0.0027815298 0.0026526492          793    5.5305803    823.91987    1.0486457 
   25700   0.67352485   -7.2924224   0.86480595 0.0028041697 0.0026544135          819    5.8857304     816.8889    1.0576714 
   25800   0.68691899   -7.3232854   0.86850925 0.0028052624 0.0026572662          808    5.6310084    817.69886    1.0566237 
   25900   0.65501991   -7.3159811   0.86982798 0.0027986743 0.0026593834          814    5.9200397    814.73331    1.0604697 
   26000   0.64645513   -7.3952772   0.86985499 0.0027879967   0.00266141          826    5.6941368    812.51568    1.0633641 
   26100   0.65860059   -7.3635635   0.87532562 0.0027947816 0.0026635991          826    5.4150085    817.84404    1.0564361 
   26200   0.65252239   -7.2889924    0.8682584 0.0027616361 0.0026647784          822    6.1195031    814.01014    1.0614118 
   26300    0.6922435   -7.2928634   0.87648091 0.0027771891 0.0026660151          836     5.814011    817.48483    1.0569003 
   26400   0.67388385     -7.34196   0.88903216 0.0028062883 0.0026677273          837    5.4398009    818.53756    1.0555411 
   26500   0.67814826   -7.3707224   0.88447994 0.0027813834  0.002669965          843    5.7191385    813.85887    1.0616091 
   26600   0.62559388   -7.3953134   0.87289357 0.0027346289 0.0026701511          827    5.3655809     815.4696    1.0595122 
   26700   0.64836655   -7.3986497   0.87357393 0.0027265103 0.0026698973          840    5.6940538    811.98239    1.0640625 
   26800   0.69134501   -7.3579279   0.87937512 0.0027343753 0.0026696469          854     6.078631    810.87424    1.0655166 
   26900   0.67464477   -7.3716026   0.88651572 0.0027463312 0.0026698619          857    5.4316022    816.81708    1.0577644 
   27000   0.66605907   -7.4133604   0.89013621 0.0027473339 0.0026702681          847    5.6246439    812.12513    1.0638755 
   27100   0.71550079   -7.3767483   0.89153204 0.0027414884 0.0026707505          848    5.7744101    812.86404    1.0629084 
   27200   0.67438765   -7.3663207   0.90061029 0.0027592226 0.0026712403          849    5.5768844    815.73142    1.0591721 
   27300   0.67334295   -7.4193422   0.89525035 0.0027327544 0.0026716926          856    5.8554444    809.05857    1.0679078 
   27400   0.67460618    -7.413954   0.89991179 0.0027369579 0.0026717026          839    5.7693419    810.59738    1.0658806 
   27500   0.65846433   -7.4158364   0.90869834 0.0027536313  0.002672021          848    5.3183133    815.39262    1.0596122 
   27600   0.66797623    -7.380709    0.9083385 0.0027425679 0.0026722724          850    5.6447717    814.45102    1.0608373 
   27700   0.69674134   -7.3796257   0.90124815 0.0027113361 0.0026720205          852    5.5540999     815.3657    1.0596472 
   27800   0.65636825   -7.4008326   0.90191883 0.0027035936 0.0026708655          857     5.774469    811.09599    1.0652253 
   27900   0.68025501   -7.4114226   0.89342299 0.0026685274 0.0026697267          850    5.8147277    810.12076    1.0665077 
   28000   0.68300487    -7.371137   0.90237483 0.0026856393  0.002668102          842    5.5384218    815.80438    1.0590774 
   28100    0.6633575   -7.4058027   0.91087856 0.0027013005 0.0026669911          850    5.6163247    812.38464    1.0635356 
   28200   0.66832715    -7.396658   0.90350211 0.0026699235 0.0026655985          845    5.8650967    810.51957    1.0659829 
   28300   0.67177832   -7.3731916   0.90719754 0.0026713708 0.0026640082          843    5.8059274    812.65335     1.063184 
   28400   0.64627602   -7.4152111   0.91075072 0.0026723906 0.0026624978          849    5.4045396    813.84132     1.061632 
   28500   0.64745862   -7.3854476   0.91183748 0.0026661914 0.0026606389          854    5.8235878    811.10455    1.0652141 
   28600   0.68892269   -7.4061696   0.90296649 0.0026310212 0.0026586314          853    5.5916183    813.36639    1.0622519 
   28700   0.69131614    -7.442749   0.89900248  0.002610344 0.0026554679          855    5.6349769    810.56995    1.0659166 
   28800   0.68610232   -7.4431432   0.91540861 0.0026487517 0.0026528762          857    5.6344247    810.03254    1.0666238 
   28900   0.66381051   -7.3965255    0.9078941 0.0026179184 0.0026506191          842    5.3562396     816.2282    1.0585275 
   29000   0.65183485   -7.3773797   0.91084348 0.0026173663 0.0026479038          842    5.4435392    816.01522    1.0588038 
   29100   0.65906651   -7.3935981   0.90877426 0.0026024463 0.0026447536          847    6.0954416     807.5826    1.0698596 
   29200    0.6783255   -7.4255661   0.91693408  0.002616821 0.0026421677          850     5.904626    808.15913    1.0690964 
   29300   0.68669977   -7.4127208   0.91602568 0.0026053062 0.0026393248          847    5.1253868    817.53902    1.0568303 
   29400   0.67790151   -7.4267124   0.91250195 0.0025864567 0.0026360299          857    5.5242171    812.61678    1.0632318 
   29500   0.64506609   -7.4152619    0.9060956  0.002559592  0.002632227          853    5.9991301     808.1584    1.0690973 
   29600   0.68283772   -7.4086148   0.89755953  0.002526913 0.0026277497          854    5.8058785     810.0605     1.066587 
   29700   0.68025215   -7.3910912   0.90383875 0.0025360234 0.0026229668          853    5.8021698    811.59085    1.0645758 
   29800   0.66819229   -7.4178226   0.90190976  0.002522119 0.0026184999          856    5.4633313    813.72543    1.0617832 
   29900   0.66738248    -7.443502   0.90724044 0.0025285408 0.0026136535          856    5.4706048    811.56411    1.0646109 
   30000    0.6532711   -7.3180174   0.91007424 0.0025279839  0.002609288          840    6.1041577    812.24618    1.0637169 
   30100   0.66927273     -7.40801   0.91228855 0.0025257158 0.0026047918          848    5.5158628    813.27476    1.0623716 
   30200   0.66883689   -7.4339428   0.91161786 0.0025155018 0.0026003085          847     5.413335    813.21347    1.0624517 
   30300   0.68110507   -7.4144468   0.90728997 0.0024952969 0.0025953628          848    5.7014435    811.41901    1.0648013 
   30400   0.65940542   -7.3583832   0.90427303 0.0024788186 0.0025903364          844    6.0507225    810.37322    1.0661754 
   30500   0.67013702   -7.4659981   0.89814484 0.0024539476 0.0025846927          851    5.4267209     811.1402    1.0651673 
   30600   0.69028559   -7.4646383   0.90063791 0.0024527176 0.0025789273          846    5.5796887    809.37503    1.0674903 
   30700   0.69161777   -7.3885406    0.9029046 0.0024508811 0.0025732309          848    5.8014534    811.76781    1.0643438 
   30800     0.697149   -7.4162559   0.90781802 0.0024562175 0.0025677738          852    5.8167309    809.60725    1.0671841 
   30900   0.67462817   -7.4043299   0.91203977 0.0024596541 0.0025624346          852    6.0368124    807.89552    1.0694452 
   31000   0.69283103   -7.4198243   0.91384871 0.0024565825 0.0025572265          846    5.8535642    809.14777    1.0677901 
   31100    0.6811963    -7.422578   0.91166151 0.0024428229 0.0025518891          849    5.7977477    809.70262    1.0670584 
   31200   0.68599583   -7.4307198   0.91328463 0.0024393286 0.0025465204          847    5.4272273    813.33248    1.0622962 
   31300   0.67931088   -7.4129419   0.90508057 0.0024096926 0.0025406992          851    5.7407341    810.79591    1.0656196 
   31400   0.67442686   -7.4074568   0.91258978 0.0024219474  0.002534991          857    6.7738487    800.20179    1.0797277 
   31500   0.68481389   -7.4699997   0.90873724 0.0024040667 0.0025291585          859    5.6074181    809.19224    1.0677314 
   31600   0.68239792   -7.4036003   0.92612721 0.0024423186 0.0025239337          859    5.4941906     814.2899    1.0610472 
   31700   0.66561031   -7.4367122   0.90988987 0.0023919292  0.002518302          849     5.365192    813.47451    1.0621107 
   31800   0.68716181   -7.4325024   0.90527689 0.0023723189 0.0025122166          837    5.8968442    807.98675    1.0693245 
   31900   0.68990859   -7.4342805   0.90772916 0.0023712882 0.0025058384          847    5.9267622    807.64156    1.0697815 
   32000   0.69585977    -7.447877    0.9121075 0.0023752799 0.0024997124          849    5.2201335    814.94261    1.0601974 
   32100    0.6542934   -7.3930514   0.90818406 0.0023576948 0.0024934701          839    5.6219835    813.35916    1.0622613 
   32200   0.64607744    -7.435968   0.89197189 0.0023084158 0.0024866991          840      5.58732    810.86328     1.065531 
   32300   0.68009043   -7.4177403   0.90846639 0.0023438245 0.0024796023          846     5.947577    808.16183    1.0690928 
   32400   0.69114712   -7.4147513   0.91442182 0.0023519079 0.0024735751          850    5.8849493    809.28972    1.0676028 
   32500   0.68719667   -7.4067978   0.91553728 0.0023475315 0.0024674576          851    5.8554646    809.74293    1.0670053 
   32600   0.68333566   -7.4020888   0.90627476 0.0023166532 0.0024611559          852    5.8011983    810.85266     1.065545 
   32700   0.67669756   -7.3875156   0.89439276 0.0022792884 0.0024540122          847    5.9278329    810.32073    1.0662445 
   32800   0.66889931   -7.4481495   0.89490113 0.0022736309 0.0024464351          852    5.4291029    812.03099    1.0639988 
   32900   0.69978681   -7.3916772     0.916826 0.0023222543 0.0024397801          843    5.7240497    812.70368    1.0631181 
   33000   0.70266289   -7.3821947   0.90945843 0.0022966122 0.0024335246          851    6.4262351    805.61999    1.0724659 
   33100    0.6853877   -7.4431301   0.90807058 0.0022861797 0.0024268827          850    5.5952851    810.71339    1.0657281 
   33200   0.64319363   -7.4218603   0.91169799 0.0022883985 0.0024200846          844    5.5808318    811.51628    1.0646737 
   33300   0.68400878   -7.3922628   0.90622813 0.0022678381 0.0024131761          853    5.7271868    812.08697    1.0639255 
   33400   0.67125331   -7.4190211   0.90621433 0.0022610138 0.0024064225          848    5.5833144    812.09091    1.0639203 
   33500   0.64369258   -7.4389782   0.90601509 0.0022537689 0.0023994156          846    5.5472708    810.90394    1.0654776 
   33600   0.67446846    -7.370826   0.91363671  0.002265964 0.0023926028          846    6.2559823    807.84896    1.0695069 
   33700   0.68410656   -7.4499953   0.92625979 0.0022904544 0.0023864333          851    5.4617124    811.77145     1.064339 
   33800   0.62988779   -7.4538385    0.9132518  0.002251607  0.002380159          848    5.3377879     812.2246    1.0637452 
   33900   0.68532069   -7.4275791   0.90227403 0.0022179794 0.0023730641          848    5.9273228    807.94929     1.069374 
   34000   0.70996298    -7.421392   0.90079586  0.002207833 0.0023656543          849    5.7296984    810.70435    1.0657399 
   34100   0.65161977    -7.439787   0.89654018 0.0021909584 0.0023582014          853    5.5611699    811.05823    1.0652749 
   34200   0.67596432   -7.4487509   0.90872525 0.0022142428 0.0023508337          843    5.4206039    812.21536    1.0637573 
   34300   0.69680169   -7.4224377   0.91502855 0.0022231014 0.0023440771          844    5.7044285    810.91495    1.0654632 
   34400    0.6742492   -7.3952131   0.90961837 0.0022035328 0.0023372414          856    6.1031985    807.95238      1.06937 
   34500   0.65390548   -7.4596306   0.89742139 0.0021676845 0.0023299273          851    5.8432878    806.47342     1.071331 
   34600   0.65268634   -7.4125289   0.90127194 0.0021706935 0.0023224739          852    5.7480677    809.97788    1.0666958 
   34700   0.68661279   -7.4192426   0.90141694 0.0021647861 0.0023150634          848     5.511107     813.0388    1.0626799 
   34800   0.64558341   -7.3805663   0.90586334 0.0021692129 0.0023077945          843    5.8717913    810.75606     1.065672 
   34900   0.67150155   -7.4854774   0.90335182 0.0021570005 0.0023004068          847    5.5602176    808.39048    1.0687904 
   35000   0.66501832    -7.433561   0.90929017 0.0021649766 0.0022933424          847    5.3585437    813.66148    1.0618667 
   35100   0.63890406   -7.3700436   0.90526381 0.0021492493 0.0022861312          836    5.9613796    810.42608    1.0661059 
   35200   0.69404773   -7.3937896   0.91001018 0.0021543801 0.0022789525          839     5.501321    814.66737    1.0605555 
   35300   0.69981059   -7.3453703   0.91255894  0.002154294 0.0022721046          840    5.6885988    815.81142    1.0590683 
   35400   0.66505292   -7.3787001   0.91287046 0.0021489417 0.0022653098          845    5.8716319    811.38293    1.0648486 
   35500   0.63420692   -7.4208861   0.91273879 0.0021425793 0.0022581685          849     5.497396    812.43829    1.0634654 
   35600   0.68086385   -7.4262132   0.90657338 0.0021221287 0.0022511778          851    5.6287498    811.24374    1.0650313 
   35700    0.6803101   -7.3925958    0.9004434 0.0021018753 0.0022438308          857    5.7052811    812.35468    1.0635748 
   35800   0.66362924    -7.374095   0.91277153 0.0021247009 0.0022366353          853    5.6546918    813.75393     1.061746 
   35900   0.66434535   -7.4502183   0.90417313 0.0020988234 0.0022295298          861    5.6981009    808.43334    1.0687338 
   36000   0.68824613   -7.4397295   0.91166628 0.0021103386 0.0022224128          860    5.4131268    812.72785    1.0630865 
   36100   0.64733872   -7.3738458   0.90403314 0.0020868724  0.002215171          857    5.6128978    813.95682    1.0614814 
   36200   0.66558381   -7.3853359   0.90835921 0.0020910663 0.0022079603          852    5.4956738    814.76539     1.060428 
   36300   0.66640428   -7.4089208   0.90764822 0.0020836736 0.0022007163          863    5.8142627    810.13216    1.0664927 
   36400   0.63445955   -7.4015057   0.91702169 0.0020994086 0.0021938749          853    5.3936786    814.79746    1.0603862 
   36500   0.69190413   -7.4580089   0.91054919 0.0020788794 0.0021868996          855     5.071923    815.68259    1.0592356 
   36600   0.67961423   -7.3801718   0.91370183 0.0020803775 0.0021799805          860    6.2757246    806.84255    1.0708409 
   36700   0.70627885   -7.4035306   0.91131433 0.0020692877 0.0021731215          857    5.8590789    810.09191    1.0665456 
   36800   0.65338918   -7.4215259   0.91118829 0.0020633793 0.0021663861          856    5.7135229    810.05569    1.0665933 
   36900   0.64001035   -7.4219687   0.90606114 0.0020462085 0.0021592147          862    5.5708784    811.59186    1.0645745 
   37000   0.68655435   -7.4301301   0.90121064 0.0020297537 0.0021519513          857    5.2671675    814.99169    1.0601335 
   37100   0.65863093   -7.4039014   0.89820904 0.0020175405 0.0021443605          854    5.7172407    810.97025    1.0653905 
   37200   0.67365446   -7.4627141   0.90883588 0.0020359226 0.0021372294          857    5.7609424    807.22185    1.0703377 
   37300   0.69549544   -7.4268232   0.91358712 0.0020410793  0.002130318          850    5.9595084    807.53508    1.0699226 
   37400   0.70267594   -7.4469347   0.91583975 0.0020406411 0.0021236449          853    5.6277558    810.20357    1.0663987 
   37500    0.6784408   -7.4163626   0.92247683 0.0020499485 0.0021171952          859    5.6836473    810.91116    1.0654681 
   37600   0.69931217   -7.4250525    0.9100302 0.0020169109   0.00211058          862    5.4098943    813.47707    1.0621074 
   37700   0.67277399   -7.3743791   0.91071021 0.0020130641 0.0021036405          860    5.8237865     811.7819    1.0643253 
   37800   0.65641443   -7.4303829   0.90785645 0.0020014472 0.0020966696          856    5.7123212    809.46611    1.0673702 
   37900   0.65623694   -7.4460052   0.90369658 0.0019870197  0.002089542          859    5.1335438    815.22076    1.0598356 
   38000   0.65230286   -7.4111077   0.90898891 0.0019933967 0.0020825942          851     5.457863    813.59113    1.0619585 
   38100   0.70156687   -7.3626384    0.9166237 0.0020048637 0.0020758691          858    6.1873133    809.02712    1.0679494 
   38200   0.67932131   -7.4319303   0.91373074 0.0019933044 0.0020693039          858    5.4673871    813.01592    1.0627098 
   38300   0.66868972   -7.4057069   0.91398318 0.0019886492 0.0020626543          860    5.9152066    808.89464    1.0681243 
   38400   0.64748488   -7.4803326   0.90419478 0.0019622282 0.0020557027          855    5.3635032    810.02145    1.0666384 
   38500   0.65836747   -7.4400771   0.90349597  0.001955619 0.0020486503          855    5.6660004     809.6047    1.0671875 
   38600   0.68015027   -7.3949671   0.91280341 0.0019706464  0.002041758          851    5.8389658    810.52434    1.0659766 
   38700   0.71154452   -7.4389609   0.92306462 0.0019876499  0.002035415          848    5.3698615    813.67381    1.0618506 
   38800   0.64418649   -7.4284181   0.92432398 0.0019852319 0.0020292962          852    5.6144305    810.78104    1.0656391 
   38900   0.65929552   -7.4307054   0.91577121 0.0019618063  0.002022899          850    5.2459935    814.89745    1.0602561 
   39000   0.65837929   -7.3562505   0.91143016 0.0019475003 0.0020162627          835    5.3490836    818.43183    1.0556774 
   39100   0.70418578   -7.4048234   0.91247531  0.001944747 0.0020095173          848    5.5814938    813.27749     1.062368 
   39200   0.68850748   -7.4242893   0.90411603 0.0019220153 0.0020026496          849    5.9572757    807.80539    1.0695645 
   39300   0.66025713   -7.4350264   0.91566933 0.0019416228 0.0019960086          846    5.7177439    809.52449    1.0672932 
   39400   0.67928001    -7.413676   0.92612334 0.0019588057 0.0019898039          841    5.4374991    814.25242     1.061096 
   39500   0.68124951   -7.4006129   0.91939489 0.0019396516  0.001983656          844    5.7284135    811.66026    1.0644848 
   39600   0.68764643   -7.4600053   0.91624046 0.0019281154 0.0019773326          853    5.3620717    811.95664    1.0640962 
   39700   0.67277893   -7.3991828   0.91144742 0.0019131978 0.0019707684          846    6.1219587     807.6616     1.069755 
   39800   0.70902853   -7.3982934   0.91266892 0.0019109483 0.0019642756          845    5.5582717      814.155     1.061223 
   39900   0.65221153   -7.3835116   0.91152903 0.0019037782 0.0019577386          840    5.5656553    813.71439    1.0617976 
   40000   0.66192165   -7.4251782   0.91735101 0.0019111479 0.0019513101          851    5.7268744    809.78148    1.0669545 
   40100   0.63940112   -7.4461765   0.91204805 0.0018953617 0.0019449139          839    5.7284123    808.79024    1.0682622 
   40200   0.67173532   -7.4088262   0.92026378 0.0019076778 0.0019385888          847    5.8116709    810.57124    1.0659149 
   40300   0.68923572   -7.4254828    0.9244046 0.0019115066 0.0019325268          847    5.7715647    809.61236    1.0671774 
   40400   0.65213743   -7.4330709   0.92296955 0.0019038151  0.001926591          846    5.8188704    808.59574    1.0685191 
   40500   0.64579371   -7.3719221   0.91857698 0.0018900761  0.001920481          850    5.9606149    810.45677    1.0660655 
   40600   0.66222417   -7.4043794   0.90837371  0.001864478 0.0019141037          851    5.6855485    811.78588    1.0643201 
   40700   0.65874425   -7.4313605   0.90140919 0.0018456371 0.0019073848          847    5.2345054    814.68756    1.0605293 
   40800   0.64778813   -7.3717313   0.90798929 0.0018545533 0.0019006415          850    5.3288138    817.43677    1.0569625 
   40900   0.67439384   -7.3495737   0.91762644 0.0018696545 0.0018942703          856    6.1036832    810.52764    1.0659723 
   41000   0.65195642   -7.4105975   0.92843194 0.0018870568 0.0018883597          845    5.6535287    811.65427    1.0644927 
   41100   0.66133447   -7.4434848   0.92538027 0.0018762779 0.0018824878          853    5.1826343    814.92225    1.0602238 
   41200   0.67860753   -7.3803793   0.91922484 0.0018592735 0.0018765861          848     5.680182    813.59471    1.0619538 
   41300   0.68004425   -7.4294155   0.91412895 0.0018444894 0.0018703876          845    5.3799903    813.83591    1.0616391 
   41400   0.65887602   -7.4165457   0.91134517 0.0018344307 0.0018642787          842    5.3835372    814.61287    1.0606265 
   41500    0.6737665   -7.3726236   0.91406237 0.0018354666 0.0018579474          844    6.1654296    808.38696    1.0687951 
   41600    0.6675214   -7.4075795   0.91115163 0.0018252236 0.0018517575          839    5.7589371    810.38581    1.0661588 
   41700   0.65102398   -7.4534189   0.91793108 0.0018343946 0.0018456883          850    5.6525642    808.96012    1.0680378 
   41800   0.66993248   -7.4210103   0.91339139 0.0018209557 0.0018395227          845    5.5622484    811.94945    1.0641057 
   41900   0.68619671   -7.4277554   0.92775372 0.0018451744 0.0018337296          849    5.5763313    811.70586     1.064425 
   42000   0.65089873    -7.438657   0.92331114 0.0018319665 0.0018280757          853     5.715227    809.03998    1.0679324 
   42100   0.65661423    -7.417743   0.90666726 0.0017946699 0.0018219933          851    5.6937014    810.62641    1.0658424 
   42200   0.68109031   -7.4284149   0.90422939  0.001785603 0.0018155815          850    5.3656836    814.06324    1.0613426 
   42300   0.65978038   -7.4009387   0.90655464 0.0017859626 0.0018093016          850    5.5984748    812.47506    1.0634173 
   42400   0.65726689   -7.4524307   0.91141839 0.0017913097 0.0018030052          857    5.3294085     812.9058    1.0628538 
   42500   0.66341458   -7.4368372   0.92074676 0.0018053858 0.0017971176          854    5.4317031    812.34874    1.0635826 
   42600   0.66293835   -7.3766285   0.92259117 0.0018047558  0.001791428          842    5.8327439    811.65378    1.0644933 
   42700   0.67176878   -7.4096358   0.91895574 0.0017934343 0.0017857108          858    5.3704753    814.84614    1.0603229 
   42800   0.70087362   -7.4462119   0.91862835 0.0017886066 0.0017800413          855     5.383409     812.8597    1.0629141 
   42900   0.64480312   -7.3941764   0.91137079 0.0017703395 0.0017741597          854    6.1193842     807.4492    1.0700364 
   43000   0.67220617   -7.4129852   0.90719322 0.0017581264   0.00176818          852    5.5671743    813.00951    1.0627182 
   43100   0.69077211   -7.4138266   0.90338201 0.0017466783 0.0017619951          858    5.3446449    815.11336    1.0599753 
   43200   0.67276347    -7.393205   0.89609044 0.0017285695  0.001755697          858    5.8225411    810.93665    1.0654346 
   43300   0.66445938   -7.4464883   0.90572522 0.0017431201 0.0017493867          855    5.5034398    811.57459    1.0645972 
   43400   0.67067692   -7.3972913   0.92155833 0.0017695052 0.0017436975          854    5.6714236    812.21159    1.0637622 
   43500   0.66292087   -7.4006622    0.9247412 0.0017715349 0.0017382409          855    5.3848129    815.27663     1.059763 
   43600   0.64873543   -7.4359323   0.90977605 0.0017388686 0.0017325681          860    5.3990195     812.5763    1.0632848 
   43700   0.66081916   -7.4379346   0.89749533 0.0017114709 0.0017264591          862     5.661811    809.73062    1.0670215 
   43800   0.65913196   -7.3391599   0.90050183 0.0017132835 0.0017203559          860    6.3425222    808.20462    1.0690362 
   43900   0.66893365   -7.4276374   0.89756397  0.001703804 0.0017142559          859    5.2774217    814.68535    1.0605321 
   44000    0.6440937   -7.4380547    0.9173064 0.0017373227 0.0017084834          858    5.3876873    812.62707    1.0632183 
   44100   0.68798408   -7.3753988   0.91312815 0.0017254878 0.0017029244          852    6.2894274     807.1401    1.0704461 
   44200   0.69323867   -7.3843286   0.90253765  0.001701617 0.0016971564          851    6.1040722    808.56073    1.0685654 
   44300   0.65713091   -7.4654003   0.91680422 0.0017246129 0.0016914845          850    5.2081855    813.34588    1.0622787 
   44400   0.67519923   -7.4241889   0.90080465 0.0016906994 0.0016856567          847    6.0214567    807.01103    1.0706173 
   44500   0.71711654   -7.3981153    0.9147577 0.0017130294 0.0016800065          845    6.0323869    808.98773    1.0680014 
   44600   0.67482958   -7.4347545   0.90573658 0.0016923329 0.0016743498          838      5.44998    812.69453    1.0631301 
   44700   0.63580648   -7.4413168   0.90377286  0.001684886 0.0016685501          844    5.6599178     809.2217    1.0676926 
   44800   0.65211844   -7.4478936   0.90790686 0.0016888148 0.0016627656          845    5.4853421    811.14981    1.0651547 
   44900   0.68303868   -7.4190143   0.91494576 0.0016981176 0.0016573367          845    5.8343889     809.2784    1.0676178 
   45000   0.67627936   -7.3985171   0.90754484 0.0016806386  0.001651792          848    5.8099576    810.77223    1.0656507 
   45100   0.68702834   -7.4090358   0.91381306 0.0016884942 0.0016462628          847     5.193113    816.97282    1.0575627 
   45200   0.68026337   -7.4375636   0.91603759 0.0016888599 0.0016409272          852    5.8434666     808.2827    1.0689329 
   45300   0.68637373   -7.4382547   0.90931476 0.0016727644 0.0016354906          852    6.0608335     805.7631    1.0722755 
   45400   0.67384305   -7.4396877   0.91240078 0.0016747444   0.00163007          842    5.3003892    813.90487    1.0615491 
   45500   0.68167674   -7.3756917   0.91150229 0.0016694181 0.0016245674          845    5.6559998      814.133    1.0612517 
   45600   0.65809436   -7.3942032   0.90973604 0.0016625293 0.0016192234          849    5.7474486    811.47366    1.0647296 
   45700   0.66124589   -7.4529289   0.90504803 0.0016503429  0.001613728          846     5.578794    810.18352    1.0664251 
   45800   0.67329324   -7.4326756   0.90204858  0.001641282 0.0016082315          850    5.7502285    809.55089    1.0672584 
   45900   0.70155885   -7.4169891   0.91061326 0.0016532557 0.0016027416          858    5.5709146     812.3094    1.0636341 
   46000   0.66622008   -7.3937593    0.9105053 0.0016494661 0.0015974319          858     5.851914    810.34583    1.0662114 
   46100   0.69292539    -7.403019   0.92094161 0.0016647534 0.0015923337          862    5.5211881    813.68155    1.0618405 
   46200   0.63552885   -7.3870212   0.92184465 0.0016627789 0.0015873167          860    5.2783511    816.83591      1.05774 
   46300   0.65782942   -7.3874383    0.9108613 0.0016394192 0.0015822294          860    6.2997638    805.94544    1.0720329 
   46400   0.66639068   -7.4189226   0.89769681 0.0016122428 0.0015768582          858    6.0811668    806.45391    1.0713569 
   46500   0.66187475   -7.3960475   0.90312702 0.0016185072  0.001571344          854    5.3949374    815.58637    1.0593605 
   46600   0.64016478   -7.4042862   0.91076232  0.001628688 0.0015660474          854    5.0663404     818.5613    1.0555104 
   46700    0.6473931    -7.403097    0.9121512 0.0016276788 0.0015609064          856    5.5835982    812.65542    1.0631812 
   46800   0.65019687   -7.3900932   0.91567081  0.001630468 0.0015559022          860    5.9640622    809.46653    1.0673696 
   46900   0.67869817    -7.439525   0.90921356  0.001615518 0.0015508221          858    5.7787646    808.63109    1.0684724 
   47000   0.69387716   -7.3893098   0.91685045 0.0016256214  0.001545852          854    5.6125423    813.78435    1.0617063 
   47100   0.66187706    -7.381325   0.90736715 0.0016053913 0.0015407905          855    5.8708393    810.94942    1.0654179 
   47200   0.68315248   -7.4485251   0.89685266 0.0015834263 0.0015354443          854    5.7244527    808.86429    1.0681644 
   47300   0.67261087   -7.4357301   0.90167409 0.0015885731 0.0015300844          854    6.0260659    806.11319    1.0718098 
   47400   0.69771862   -7.4242952   0.91350658 0.0016060242 0.0015249825          861    5.3620856    814.60139    1.0606415 
   47500   0.68327362   -7.4464472   0.91301795 0.0016017859 0.0015201145          854    5.0133754    816.82697    1.0577516 
   47600    0.6724792    -7.435606   0.90231444 0.0015796821 0.0015150169          855    5.7857576     808.9733    1.0680204 
   47700    0.6710166   -7.4070178   0.89639369 0.0015660267 0.0015097866          848    5.7746293    810.65999    1.0657983 
   47800   0.70900938    -7.445708   0.90631386 0.0015800451 0.0015045738          856     5.684317    809.72373    1.0670306 
   47900   0.69789343   -7.4661515   0.91049706 0.0015840241 0.0014996137          855    5.6648959    808.75442    1.0683095 
   48000   0.67541338   -7.4145974   0.91442816 0.0015875489 0.0014948322          853    5.7430549    810.38121    1.0661649 
   48100   0.69995632   -7.4434253   0.90240937 0.0015634258 0.0014899805          847    4.9596273    818.06929    1.0561453 
   48200   0.68552043   -7.4414353   0.90261865  0.001560544 0.0014848499          857    5.4962013    811.87739    1.0642001 
   48300   0.67218923   -7.3924198    0.9001747 0.0015530964 0.0014798048          855    6.5197512    803.32704    1.0755271 
   48400   0.68420079   -7.3880031   0.90968365 0.0015662597 0.0014748994          845    5.7434915    812.27318    1.0636815 
   48500   0.69923823   -7.4330439   0.90856504 0.0015611083 0.0014700943          848    5.4463671    813.28736    1.0623551 
   48600   0.67552659   -7.4465852   0.90241666 0.0015473537 0.0014652618          854    5.8588413    807.86161    1.0694901 
   48700   0.67649469   -7.4136513     0.903766 0.0015464853 0.0014603528          849    5.7399013    810.36834    1.0661818 
   48800   0.67899391   -7.4033183   0.90686434 0.0015486071 0.0014555114          858    5.4951672    813.89918    1.0615565 
   48900   0.65226536   -7.4183493   0.90478947 0.0015419043 0.0014506674          852    5.6414745    810.88735    1.0654994 
   49000   0.64536508   -7.3965049   0.92060622 0.0015656568 0.0014460686          850    5.7576093    811.26475    1.0650038 
   49100   0.71677645   -7.4255822   0.90138931 0.0015298528 0.0014414177          851    5.7719208    810.04594    1.0666062 
   49200   0.66393189   -7.3976514   0.89825298 0.0015214312 0.0014364582          847    5.8003384    810.95145    1.0654152 
   49300   0.68378456   -7.4338301   0.89682175 0.0015159259 0.0014314848          841    5.3622656    813.91988    1.0615295 
   49400   0.66961047   -7.4361507    0.9113929 0.0015374374 0.0014268105          853    6.2662699    803.99219    1.0746373 
   49500    0.6898089   -7.4339868   0.90753066 0.0015278294 0.0014222085          849     5.863826    808.04407    1.0692486 
   49600   0.68217984   -7.4243243   0.92471897 0.0015536273 0.0014178022          849    5.1694404    816.36496    1.0583502 
   49700    0.6694397   -7.3658356   0.91057911 0.0015267926 0.0014134835          843    6.0068583    810.57546    1.0659094 
   49800   0.68676011   -7.4256359   0.90427162  0.001513172 0.0014088453          850    5.7366897    809.93619    1.0667507 
   49900   0.66558091   -7.3778484   0.90118957 0.0015049926 0.0014041738          855     6.234075    807.11201    1.0704834 
   50000   0.69121657     -7.39943    0.9012289 0.0015020482   0.00139946          847    5.3422679    815.78471     1.059103 
   50100   0.66087086   -7.4273669   0.90176909 0.0014999486 0.0013948043          854     5.479948    812.38094    1.0635405 
   50200   0.67469711   -7.4320277   0.90285382 0.0014987613  0.001390125          860    5.6967688    809.92034    1.0667716 
   50300    0.6939608   -7.3547473   0.90734975 0.0015032302 0.0013856128          851    6.5771784    805.64001    1.0724393 
   50400   0.70813535    -7.423315   0.92121784 0.0015231776 0.0013813362          853    5.3743549    814.63836    1.0605933 
   50500    0.6588203   -7.4333057   0.91245906  0.001505708 0.0013770817          851    5.4250284    812.80117    1.0629906 
   50600   0.65800336   -7.3651332   0.90786581 0.0014951677 0.0013727105          850      5.93582    811.00247    1.0653482 
   50700   0.67297699    -7.389615   0.90556171 0.0014884315 0.0013682566          851    5.7902782     811.5346    1.0646496 
   50800   0.66322674   -7.4569033    0.9017947  0.001479322 0.0013637985          850    5.2894261    813.06452    1.0626463 
   50900   0.70523197   -7.4300389   0.89455022  0.001464555 0.0013592323          860    5.7860595    809.36942    1.0674977 
   51000   0.67631537    -7.403076   0.90397103 0.0014770768 0.0013546899          860    5.8274211    809.77983    1.0669567 
   51100   0.68631677   -7.4354007    0.9180354 0.0014971223 0.0013505437          855    5.5894132    810.99094    1.0653633 
   51200   0.69871659   -7.4471029   0.91119768 0.0014830691 0.0013462776          853    5.6652072    809.77604    1.0669617 
   51300   0.69183301   -7.4203557   0.92167778 0.0014972024 0.0013421431          858     5.617186    811.98343    1.0640611 
   51400    0.6532053   -7.4680503   0.91986221  0.001491346 0.0013381134          848    5.0590812    814.76777    1.0604249 
   51500   0.65639782    -7.432121   0.91444453 0.0014796837 0.0013340382          854    5.6788433    809.72856    1.0670242 
   51600   0.69517433   -7.3683784   0.90580643 0.0014628657 0.0013298413          852    6.1683198    809.06507    1.0678993 
   51700   0.68089003   -7.3913473   0.90364432 0.0014565511 0.0013255868          845    6.0558854    808.72226    1.0683519 
   51800   0.66474883   -7.4475715   0.90812034   0.00146094 0.0013213304          844    5.1116751    815.44231    1.0595477 
   51900   0.67890233   -7.4166755   0.90742083  0.001457002 0.0013170787          856    5.5852783    812.63442    1.0632087 
   52000   0.66166005   -7.4530002   0.91143738 0.0014606368 0.0013130311          855    5.6285807    809.24258     1.067665 
   52100    0.6897912   -7.4319166    0.9098545 0.0014553015 0.0013089291          852     5.772805    809.29044    1.0676019 
   52200   0.71820973    -7.454906   0.91671854 0.0014634715 0.0013049293          849    5.4941947    811.37146    1.0648637 
   52300    0.6595456   -7.4140183   0.91718917 0.0014614231 0.0013010603          850    5.5817228    812.08637    1.0639262 
   52400   0.68147378   -7.3940164   0.90654943 0.0014417135 0.0012969708          849     5.946693    809.33435     1.067544 
   52500   0.70212516   -7.3773683   0.90558833 0.0014374418 0.0012928442          849    6.0669877    809.72016    1.0670353 
   52600   0.63527356   -7.4039418   0.91341689 0.0014471117 0.0012887671          852    5.6304469    812.11469    1.0638891 
   52700   0.65272888   -7.3942268   0.91037898 0.0014395619  0.001284778          841    5.4246006    815.02428    1.0600911 
   52800   0.67632589   -7.4118986    0.9177061 0.0014483998 0.0012808898          842    5.7162812     811.3142    1.0649388 
   52900    0.6972663   -7.4430682   0.90845966 0.0014310959 0.0012769554          845    5.7903338    808.87286     1.068153 
   53000   0.68707351   -7.4084997   0.90885712 0.0014290206 0.0012729708          844    5.9005402    809.41505    1.0674375 
   53100   0.67199213   -7.4393005   0.90582013 0.0014215633 0.0012689294          840    5.3566391    813.29004    1.0623516 
   53200   0.63906212   -7.4424146   0.90767635 0.0014217988 0.0012649772          850    5.6891334       809.15    1.0677872 
   53300   0.66775043   -7.3985233   0.89998785 0.0014071105 0.0012609076          851    6.0071017    808.90298    1.0681133 
   53400   0.69060926   -7.4319687   0.91887416 0.0014339484 0.0012570149          856    5.1122552    816.86501    1.0577023 
   53500   0.64847917   -7.4345571   0.91136146 0.0014195661 0.0012531881          852    5.3041161    813.54884    1.0620137 
   53600   0.68462282   -7.4133105    0.9083162 0.0014121831 0.0012493189          850    6.0451148    807.50213    1.0699662 
   53700   0.71736353   -7.4017574    0.9127166 0.0014163821  0.001245433          847     5.721259    812.00577    1.0640319 
   53800   0.66772318   -7.3981186    0.9156666 0.0014183188 0.0012417826          847    5.8178156    810.59322     1.065886 
   53900     0.654692   -7.3975327   0.91671161  0.001417303 0.0012380684          850    5.6800694    811.57746    1.0645934 
   54000   0.66614476   -7.3625636   0.90437441 0.0013956395 0.0012342801          851    5.6973231     814.1732    1.0611993 
   54100   0.66804141   -7.4001804   0.90694819 0.0013970243 0.0012304139          851    5.6203825    812.83058    1.0629521 
   54200   0.66629038    -7.435264   0.91043637 0.0013998099 0.0012266244          852    5.6473051    810.23791    1.0663535 
   54300   0.70668584   -7.3945856   0.90686685 0.0013917539 0.0012227838          852     6.028431    808.73801    1.0683311 
   54400   0.65502589   -7.3687912   0.91623093   0.00140354 0.0012191298          857    5.8787927    811.22917    1.0650505 
   54500   0.65506254   -7.4541582   0.91904336 0.0014052651 0.0012155654          848     5.287569    812.85204    1.0629241 
   54600   0.64314497   -7.4240692   0.90187339 0.0013764856 0.0012118949          850    5.5026874     811.9754    1.0640716 
   54700   0.65449535    -7.415777   0.90686022 0.0013815664 0.0012081129          850    5.4363625    813.89006    1.0615684 
   54800   0.65043131   -7.3675458    0.9106247 0.0013847699 0.0012043754          851    5.8883764    811.79788    1.0643043 
   54900   0.66851852   -7.3980269   0.90165004 0.0013686248 0.0012006188          850    5.5442448    813.59992     1.061947 
   55000   0.64187085   -7.3980149   0.89950786 0.0013628907 0.0011967829          853    5.9169802    809.37147     1.067495 
   55100   0.67646485   -7.4343365   0.91096888 0.0013777509 0.0011930227          855    5.6304219    810.45752    1.0660645 
   55200   0.68425851   -7.4033108   0.91442713 0.0013804757 0.0011894919          842    5.7808043    810.73908    1.0656943 
[...]
   89600   0.64930173   -7.4249288   0.97337171 0.00090529362 0.00053240441          849    5.2247604    815.18214    1.0598858 
   89700   0.65698404   -7.3365661   0.96835002 0.00089961912 0.00053162358          845    6.0585435    811.59823    1.0645661 
   89800   0.67305544    -7.385718   0.96319922 0.00089383743 0.00053081265          845    5.9846785    809.27431    1.0676232 
   89900   0.63457812   -7.4282699    0.9673331 0.00089667509 0.00053000349          849    5.5375537    811.46059    1.0647467 
   90000   0.65814727   -7.4150469   0.96553636 0.00089401515 0.00052919983          847    5.5977043     811.8128    1.0642848 
   90100   0.66381489   -7.4032037   0.96985774 0.00089701973 0.0005284247          845    5.5544813    813.01641    1.0627092 
   90200   0.69086105   -7.3798284   0.97701657 0.0009026391  0.000527658          846    5.8410211    811.57335    1.0645988 
   90300   0.67353663   -7.4412338   0.97070451 0.00089581442 0.00052690082          837    5.6579513    810.15088     1.066468 
   90400   0.68009762   -7.4091789   0.96963413 0.00089383677 0.00052612945          850    5.6985847    811.23475    1.0650431 
   90500   0.67271175     -7.41279   0.95795159 0.0008820917 0.00052532279          852    5.7316237    810.72085    1.0657182 
   90600   0.66062879   -7.4211992   0.96491355 0.00088752165 0.0005244942          853    5.8286991    809.11984     1.067827 
   90700   0.67752932   -7.4591889   0.97054764 0.00089171962 0.00052370898          850    4.9487611    816.53389    1.0581312 
   90800    0.6399032   -7.3871337   0.97259305 0.00089261476 0.00052294933          848    5.8192848    811.10686    1.0652111 
   90900   0.67130203   -7.3449002   0.97696655 0.00089564223 0.00052221022          846    5.6868075    815.37637    1.0596334 
   91000   0.68637503   -7.4236825   0.97600125 0.00089377403 0.00052148649          857    5.6363255    811.38089    1.0648513 
   91100    0.6720473   -7.3945287   0.97146871 0.00088864682 0.00052074278          861    6.0278974    808.62399    1.0684818 
   91200   0.66321696   -7.4672785   0.96765117 0.00088418418 0.00051997712          859    5.4701533    810.38522    1.0661596 
   91300   0.65014207   -7.4101125   0.96776529 0.0008833199 0.00051920627          859    5.8223759    809.76357    1.0669781 
   91400   0.66595672   -7.3710101   0.96879216 0.00088328971 0.00051844229          859    5.9384083     811.2253    1.0650555 
   91500   0.65711593   -7.4392144   0.94788227 0.00086328075 0.00051759079          859    5.3400182    813.32513    1.0623058 
   91600   0.66369633   -7.4373368   0.95529189 0.00086907923 0.00051669605          856    5.7076909    809.32496    1.0675563 
   91700   0.70595154   -7.4321548   0.96934879 0.00088090584 0.00051590496          860    5.9527549    807.53695    1.0699201 
   91800   0.68349622    -7.408877   0.97008297 0.00088061271 0.00051513644          853    5.5055418    813.37555      1.06224 
   91900   0.67986546   -7.3708971   0.97364585 0.00088288524 0.0005144166          860    5.6973119    813.76736    1.0617285 
   92000   0.66200884   -7.4042061   0.96201374 0.00087138925 0.0005136535          860    5.6332112    812.43786    1.0634659 
   92100   0.64610401   -7.3764504   0.95681259 0.00086573705 0.00051283143          854    6.1772516    807.54335    1.0699116 
   92200   0.66356316   -7.4736319   0.96826301 0.00087514733 0.00051202929          854    5.3595498    811.14367    1.0651627 
   92300   0.68214934   -7.4285934   0.96211268 0.00086864633 0.00051125884          852    5.5573241    811.69692    1.0644367 
   92400   0.68171741   -7.4054811   0.95846777 0.00086441898 0.00051045463          856    5.6625348    811.85952    1.0642235 
   92500   0.65762051   -7.4267753   0.95672812 0.00086191722 0.00050961655          861    5.5704585     811.4545    1.0647547 
   92600   0.64477889   -7.4259504   0.96545508 0.00086884006 0.0005088176          860    5.3658863    813.76456    1.0617322 
   92700   0.67198033   -7.3767102   0.96717918 0.00086945269 0.00050805036          860    5.7714479    812.25977    1.0636991 
   92800   0.69006468   -7.3702214   0.95385287 0.00085654891 0.00050725786          860    6.2672442    807.39741     1.070105 
   92900   0.66693892   -7.4008533   0.95983585 0.00086099376 0.00050643282          853    5.7400942    810.91101    1.0654683 
   93000   0.68637468   -7.4280432   0.95635575 0.00085694959 0.0005056197          854     5.555978    811.60772    1.0645537 
   93100   0.63982559   -7.4286389    0.9515182 0.00085169906 0.00050478021          861    5.8455023     808.0071    1.0692975 
   93200   0.67199133   -7.4155756   0.97267332 0.00086970075 0.00050399936          861    5.2963291    815.24223    1.0598077 
   93300   0.64002043   -7.3393701   0.97490029 0.00087075767 0.00050327978          851     5.920712    812.46362    1.0634322 
   93400   0.63583821   -7.4277923   0.96789275 0.00086357311 0.00050256083          856    5.3969138    813.13888    1.0625491 
   93500   0.65385076   -7.4374189     0.959732 0.00085537611 0.00050178199          855    5.6831124    809.66797    1.0671041 
   93600   0.68338405   -7.4102375   0.95641493 0.00085150901 0.00050096654          852    5.6337326    812.16291     1.063826 
   93700   0.70074759   -7.3996632   0.95569636 0.00084996118 0.00050017584          857    5.8382899    810.61601    1.0658561 
   93800   0.67499427    -7.430318   0.95842784 0.00085148173 0.0004993685          859    5.7588916    809.18542    1.0677404 
   93900   0.68379705    -7.427734   0.96280367 0.00085445835 0.00049859455          859    5.6325155    810.89049    1.0654953 
   94000   0.64402261   -7.4108674   0.96738695 0.00085761254 0.00049783074          854    5.8063615    809.99049    1.0666792 
   94100   0.67790791   -7.4607546   0.96724721 0.0008565774 0.00049711027          859    5.4978624     810.8857    1.0655016 
   94200   0.68327353   -7.3878843   0.96914511 0.00085734705  0.000496373          852    5.7184354    812.63573     1.063207 
   94300     0.651363   -7.3992211   0.97204159 0.00085899751 0.00049565944          851    5.7765709    811.09275    1.0652296 
   94400   0.66321429   -7.4681223   0.97758486 0.00086298098 0.00049497595          857    5.0918991    814.41901     1.060879 
   94500   0.67129843   -7.3914982   0.97789075 0.00086233752 0.00049430891          851    5.5649258    814.15758    1.0612196 
   94600   0.67968729   -7.4006948   0.95555723 0.00084175231 0.00049353965          851    6.0432865    808.22466    1.0690097 
   94700   0.67980885   -7.4776476   0.96623718 0.00085026151 0.0004927744          852    5.2551283    812.83559    1.0629456 
   94800   0.68529208   -7.4093567    0.9650829 0.00084834995 0.00049203403          845    5.4556141    814.22863     1.061127 
   94900   0.68855804   -7.3940302   0.96896689 0.0008508666 0.00049131581          850    5.9694926    809.75911     1.066984 
   95000   0.64286827   -7.4230309   0.96074607 0.0008427597 0.00049057233          855    5.5122534    812.14473    1.0638498 
   95100   0.67821758   -7.4202369   0.96939749 0.00084945451 0.00048981794          848    5.4997888    813.09986    1.0626001 
   95200   0.69032282   -7.3897881   0.98009853 0.00085792938 0.00048914368          845    5.9177331    810.26768    1.0663143 
   95300   0.65967976   -7.4324489   0.97626935 0.00085368078 0.00048848417          856    5.8343194     808.1638    1.0690902 
   95400   0.63982129   -7.4042005    0.9756791 0.00085227035 0.00048782616          858    5.4539127    813.89773    1.0615584 
   95500   0.65992381   -7.3958469   0.96255303 0.00083992411 0.00048710772          856    5.7236541    811.68603     1.064451 
   95600   0.67411644   -7.3667086   0.96091388 0.00083761669 0.0004863528          859     5.993579    810.56982    1.0659168 
   95700   0.70767279   -7.4423952    0.9641037 0.00083951907 0.00048560372          858    5.3427294     813.5259    1.0620436 
   95800   0.67961723   -7.4183498   0.96750249 0.00084159924 0.00048488056          853     5.963194    807.84503    1.0695121 
   95900   0.66352231   -7.4003655   0.96934439 0.0008423222 0.00048417643          854     5.945036    809.17558    1.0677534 
   96000   0.69324127    -7.398265     0.962101 0.00083515712 0.00048344231          859    5.9368495    809.67064    1.0671006 
   96100   0.67401857   -7.4498896   0.97110432 0.00084209532 0.00048272772          852    5.5431947    810.61628    1.0658557 
   96200   0.67400982   -7.4393508   0.97623609 0.00084566535 0.0004820428          861    5.7435699    809.19858    1.0677231 
   96300   0.70068625   -7.3896335   0.96828704 0.00083790847 0.00048138862          850    5.5843061    814.20601    1.0611565 
   96400   0.67756876   -7.4318607    0.9652434 0.00083440819 0.00048064288          860     5.488436    812.43719    1.0634668 
   96500   0.65895287   -7.4166106   0.96985312 0.00083752428 0.00047994045          860    5.7287349    810.09376    1.0665432 
   96600   0.69673959   -7.4028475   0.96863889 0.00083560981 0.00047923579          856    5.9401028    809.67216    1.0670986 
   96700   0.69170661    -7.370604   0.97619233 0.00084125502 0.0004785855          850    6.0822443    809.56201    1.0672438 
   96800   0.67830823   -7.4444664   0.97971163 0.00084341566 0.00047794966          859    5.3657843    812.97431    1.0627642 
   96900    0.6421083   -7.4037283   0.96561069 0.00083041855 0.00047725075          856    5.6818487    811.97214    1.0640759 
   97000   0.67190763   -7.3668294   0.96486348 0.00082892051 0.00047653655          860    5.7124902    813.76898    1.0617264 
   97100   0.64725707   -7.4065098   0.96970674 0.00083222343 0.00047582319          857    5.3748716    814.70409    1.0605078 
   97200   0.65115647   -7.4290725   0.98118623 0.00084120904 0.00047516842          856    5.3956819    813.37322     1.062243 
   97300   0.68634827    -7.414873   0.98535176 0.00084391209 0.00047455917          861    5.6656668    811.51869    1.0646705 
   97400   0.69943504   -7.4095292   0.97141075 0.00083111802 0.00047393363          856    5.9746968     808.8785    1.0681456 
   97500   0.66892981   -7.4209238    0.9700237 0.00082908008 0.00047325702          855    5.8585364    808.67736    1.0684113 
   97600   0.69359689   -7.4339466   0.96987678 0.00082810517 0.00047256035          859    5.2507211    814.95801    1.0601773 
   97700   0.71165756   -7.3024295   0.97195849 0.00082903317 0.00047189305          853     6.149457    813.23078     1.062429 
   97800   0.69362876   -7.3908478    0.9697805 0.00082632967 0.00047122532          858    5.5146139     814.6178    1.0606201 
   97900   0.68950533   -7.4421298     0.967705 0.00082371893 0.00047052351          855    5.6641513    809.80473    1.0669239 
   98000   0.67710363   -7.4370797   0.97792502 0.00083156889 0.00046985733          852    5.8500446    807.89378    1.0694475 
   98100   0.70393355   -7.4083895   0.97905319 0.00083167957 0.00046924578          856     5.904657    809.26524    1.0676351 
   98200   0.68643684   -7.4311687   0.97539767 0.00082773054 0.00046860764          856    5.4938917    812.31757    1.0636234 
   98300   0.66246082   -7.4538047   0.96617984 0.00081907413 0.00046794031          858    5.8292595    806.97771    1.0706615 
   98400   0.65880594   -7.4178725     0.976144 0.00082668022 0.00046727169          854    6.0479163    806.76174    1.0709482 
   98500   0.66653253    -7.393231   0.98279074 0.00083146424 0.00046666378          857    5.8273216    810.65006    1.0658113 
   98600   0.67401203   -7.4050572   0.98661432 0.00083385253 0.00046608286          849    5.6442328    811.98618    1.0640575 
   98700    0.6944637   -7.4577717   0.97974476 0.00082720766 0.00046550028          855    5.4830541    811.04921    1.0652868 
   98800   0.67512204   -7.4611594   0.97802223 0.00082491753 0.0004648644          856    5.8034975    807.38368    1.0701232 
   98900   0.69295827   -7.4054122   0.97995018 0.00082570794 0.00046425992          854    5.8132171     810.4058    1.0661325 
   99000   0.66581141   -7.3913021   0.99020811 0.0008335085 0.00046367234          854    5.9901496    809.13705    1.0678043 
   99100   0.65626665   -7.4664953   0.97508319 0.00081994886 0.00046308299          859    5.4641651    810.11731    1.0665122 
   99200   0.66016031   -7.4102413   0.98289731 0.00082568658 0.0004624577          860    5.7308675    810.91717    1.0654602 
   99300   0.69589472   -7.4026756   0.98307959 0.00082500804 0.00046185741          853    6.1823802    806.86833    1.0708067 
   99400   0.71854934   -7.4129338   0.98950378 0.00082956387 0.00046129863          856    6.2686724    805.41388    1.0727404 
   99500   0.64892064   -7.4334263   0.98892583 0.00082824608 0.00046073163          858    5.7605723    809.01862    1.0679606 
   99600   0.68778326    -7.462119   0.98741887 0.00082615367 0.00046017666          857     5.159144    814.38092    1.0609286 
   99700   0.67595512    -7.406107   0.98914149 0.00082676487 0.00045959814          858    5.6955453    811.50572    1.0646875 
   99800   0.71352075     -7.35123   0.99170024 0.00082807301 0.0004590783          854    6.0944233    810.78243    1.0656373 
   99900   0.68374341   -7.4271922   0.97844046 0.00081618323 0.00045848201          857    5.5074162    812.34694     1.063585 
  100000   0.66557303   -7.4138327   0.98348142 0.00081956785 0.00045790215          854    5.7762039    809.86255    1.0668477 
  100100   0.68145109   -7.4047956   0.97728241 0.00081358841 0.00045728621          856    5.7691417     810.9986    1.0653533 
  100200   0.66903812   -7.4215921    0.9874139 0.00082120251 0.00045668664          850    5.5834406    811.95659    1.0640963 
  100300    0.6673797   -7.4438342    1.0028125 0.00083317752 0.00045616759          851    5.9070039    807.01865    1.0706072 
  100400   0.65377377   -7.3492724    0.9827897 0.0008157285 0.00045564054          846    5.9015097    812.90041    1.0628608 
  100500    0.6558176    -7.437341   0.98236448 0.00081456424 0.00045501884          849    4.8943411    818.36547     1.055763 
  100600   0.67133132   -7.4046159   0.99031135 0.00082033743 0.00045444994          851     5.786694    810.74867    1.0656817 
  100700    0.6656879    -7.410911   0.98646934 0.00081634338 0.00045390415          848     5.734631    811.23884    1.0650378 
  100800   0.64259521   -7.4329593   0.98837853 0.00081711188 0.00045332752          855    5.7699627    809.14106     1.067799 
  100900   0.68786332   -7.4503107   0.99951569 0.00082550023 0.00045281827          855    5.0495318    816.62156    1.0580176 
  101000   0.66703022   -7.4358933   0.98607768 0.00081359544 0.00045227521          848    5.2957914     814.5054    1.0607664 
  101100    0.6371159   -7.4162794   0.97274936 0.00080180462 0.00045166313          850    6.2990368    804.35221    1.0741563 
  101200   0.68426061   -7.4502228   0.96963658 0.00079844909 0.00045103043          847    5.7706772    808.31368     1.068892 
  101300   0.67075068   -7.3905904   0.97987512 0.00080608351 0.00045038407          853    5.5235936    814.35012    1.0609687 
  101400   0.65770233   -7.3976694   0.99041973 0.00081395441 0.00044983155          853    5.7632439     811.0461    1.0652909 
  101500   0.68509752   -7.4727381   0.98817399 0.00081130869 0.00044928289          845    5.2144777    812.83878    1.0629414 
  101600   0.68587999   -7.3890704   0.99279095 0.00081429704 0.00044873201          849    5.9025191    810.87919    1.0655101 
  101700   0.69628442   -7.4357497     0.990283 0.00081144133 0.00044820995          846    5.4849333    812.57531    1.0632861 
  101800   0.65636403   -7.4496404    0.9844892 0.00080590143 0.00044764831          849    5.5052135    810.56688    1.0659207 
  101900   0.65338956   -7.3891532   0.98613362 0.00080645536 0.0004470686          840    5.8340619    810.77192    1.0656511 
  102000   0.70201771   -7.4635873    0.9745818 0.00079622696 0.00044645926          849    5.0468697    816.15904    1.0586172 
  102100   0.66548843   -7.4179857   0.97912081 0.00079915181 0.00044584631          847    5.6886868    810.84842    1.0655506 
  102200   0.67149853   -7.3968706   0.98242026 0.00080106022 0.00044526055          848    6.0013799    808.31922    1.0688846 
  102300   0.68579498   -7.3989801   0.97633087 0.00079531677 0.00044466071          844    5.6869851    812.35822    1.0635702 
  102400   0.66329699   -7.4091816   0.98926556 0.00080506637 0.00044409185          854    5.6800419    811.42978    1.0647872 
  102500    0.6545779   -7.4203852    0.9861221 0.00080172528 0.00044353967          849    5.6791865    810.66116    1.0657967 
  102600   0.65203888   -7.3960902   0.99627648 0.00080919142 0.00044300685          851    5.6944733    811.65683    1.0644893 
  102700   0.64810116   -7.3577239    1.0034762 0.00081424553 0.00044252993          834    5.4697987    816.80503      1.05778 
  102800   0.64770034   -7.4380644   0.99169072 0.00080389974 0.00044202656          852    5.3245974    813.37852    1.0622361 
  102900   0.69009675   -7.4304257   0.98395337 0.00079685242 0.00044148212          847    5.8897105    808.21685      1.06902 
  103000   0.66756546   -7.4167036   0.97675508 0.00079025492 0.00044088538          850    5.6573655    811.07072    1.0652585 
  103100   0.63933691   -7.4598299   0.98389658 0.00079526073 0.00044029043          850    5.5160954    809.53075     1.067285 
  103200   0.64951406   -7.4192028   0.98583829 0.00079605804 0.00043973676          852    5.7765562    809.76033    1.0669824 
  103300   0.67261674   -7.4161465   0.98817752 0.00079717451 0.00043919972          849    5.5092946    813.09989    1.0626001 
  103400   0.64230867   -7.4606462   0.98096992 0.00079059471 0.00043862969          851    5.2932603    812.07875    1.0639362 
  103500   0.66910339   -7.4320448   0.99775716 0.00080334715 0.00043810113          844    5.6667189    810.55188    1.0659404 
  103600   0.66674566   -7.4095217   0.99583976 0.00080102941 0.00043760697          846    5.5283034    812.95385     1.062791 
  103700   0.66521711   -7.3934677    0.9940175 0.00079879259 0.00043709829          855    5.9010158    810.10466    1.0665289 
  103800   0.67695654   -7.4425094   0.99261998 0.00079690107 0.00043657573          844    5.5353596    811.20651    1.0650802 
  103900   0.64857134   -7.4390121   0.98338046 0.00078872349 0.00043603251          849    5.8448554    807.70614     1.069696 
  104000   0.69877411   -7.4191828   0.98453162 0.00078888751 0.00043547541          853    5.8462007    809.64948    1.0671285 
Loop time of 194.711 on 12 procs for 100000 steps with 864 atoms

Performance: 88746.748 tau/day, 513.581 timesteps/s
99.4% CPU use with 12 MPI tasks x no OpenMP threads

MPI task timing breakdown:
Section |  min time  |  avg time  |  max time  |%varavg| %total
---------------------------------------------------------------
Pair    | 10.034     | 11.064     | 11.838     |  18.5 |  5.68
Neigh   | 1.012      | 1.0501     | 1.0883     |   2.6 |  0.54
Comm    | 7.2597     | 8.3859     | 9.5296     |  26.5 |  4.31
Output  | 2.4957     | 2.4965     | 2.5036     |   0.1 |  1.28
Modify  | 168.7      | 169.63     | 170.37     |   3.6 | 87.12
Other   |            | 2.089      |            |       |  1.07

Nlocal:        72.0000 ave          75 max          67 min
Histogram: 1 0 0 0 0 4 2 2 2 1
Nghost:        1644.00 ave        1662 max        1627 min
Histogram: 1 0 2 1 3 1 2 1 0 1
Neighs:        8910.33 ave        9911 max        8293 min
Histogram: 1 1 2 4 1 1 1 0 0 1
FullNghs:      17820.7 ave       18564 max       16550 min
Histogram: 1 0 0 1 1 2 3 0 1 3

Total # of neighbors = 213848
Ave neighs/atom = 247.50926
Neighbor list builds = 4536
Dangerous builds = 0

#clear
#
#next RN
#
#jump SELF



Total wall time: 0:03:15
