
units lj                  # Use reduced LJ style units
atom_style atomic         # Uncharged point particles
atom_modify map hash      # Needed for indexing of clusters etc
                          # Used to be able to find where atoms are in relation to each other.

# Define a lattice with which to populate the simulation cell. With units
# set to 'lj' the second argument to the lattice command is the reduced
# density rho* and the spacings are multiples of that required to acheive
# that density. Also define a simulation cell called 'box' in lattice units
# and fill it with atoms. Here we're creating a box which is ten lattice
# constants in each direction.
lattice fcc 1.0 spacing 1 1 1                 # All equal sizes - gives the right reduced density.
Lattice spacing in x,y,z = 1.5874011 1.5874011 1.5874011

region box block 0 6 0 6 0 6 units lattice # Defines a region, "box", in lattice units
create_box 1 box                              # Creates a simulation box as specified above,
Created orthogonal box = (0.0000000 0.0000000 0.0000000) to (9.5244063 9.5244063 9.5244063)
  2 by 2 by 3 MPI processor grid
                                              # with one type of atom
create_atoms 1 box                            # Creates particles on lattice points
Created 864 atoms
  using lattice units in orthogonal box = (0.0000000 0.0000000 0.0000000) to (9.5244063 9.5244063 9.5244063)
  create_atoms CPU = 0.001 seconds


# Set the mass of the first (and only) atom type.
mass 1 1.0

# Lennard-Jones interactions between particles, 3.5 sigma cut-off. Apply
# long range tail corrections to energy and pressure and set all coefficients
# to unity since we work in reduced units here. Note that this doesn't shift
# the potential such that it goes to zero at the cutoff. That would require
# pair_modify('shift', 'yes').
pair_style lj/cut  3.5      # non-GPU version
pair_modify tail  yes
pair_coeff 1  1  1.0  1.0   # Intearaction between 1 and 1 set with epsilon = 1 and sigma = 1

write_data data.*
System init for write_data ...
Neighbor list info ...
  update every 1 steps, delay 10 steps, check yes
  max neighbors/atom: 2000, page size: 100000
  master list distance cutoff = 3.8
  ghost atom cutoff = 3.8
  binsize = 1.9, bins = 6 6 6
  1 neighbor lists, perpetual/occasional/extra = 1 0 0
  (1) pair lj/cut, perpetual
      attributes: half, newton on
      pair build: half/bin/atomonly/newton
      stencil: half/bin/3d
      bin: standard

#############################
#   M E L T   S Y S T E M   #
#############################

velocity all create 2.4 2750902 mom yes dist gaussian # Assign velocities
                                                    # Temperature 2.4, random number seed, zero linear momentum
						                                                        # Gaussian distribution

timestep 0.002   # simulation timestep
thermo 100       # output thermodynamic data every 100 steps

# Define a fix  in this case with index 1 applied to all
# particles in the simulation. This fix is for simulations
# in the anisotropic NPT ensemble. Note that we use the MTK
# correction.
fix 1 all npt temp 2.4 2.4 0.1 iso 5.68 5.68 0.5 mtk yes tchain 5 pchain 5 # Use NPT ensemble
                                                                         # Set temperature and pressure and damping
                                                                         # Numbers of thermostats in chain and in barostat
run 1000         # run for 10000 steps
Per MPI rank memory allocation (min/avg/max) = 3.633 | 3.633 | 3.634 Mbytes
Step Temp E_pair E_mol TotEng Press Volume 
       0          2.4   -8.3859253            0    -4.790092     -2.24275          864 
     100    1.3007594   -6.4407842            0   -4.4919034    5.3582762    891.69205 
     200    1.5828213   -6.0796178            0   -3.7081338    6.4338598    907.46239 
     300    1.7629056     -5.73851            0   -3.0972122    5.5953229    954.02439 
     400    1.8733232   -5.2785237            0   -2.4717912    6.0585808    994.36537 
     500      2.02574   -4.9360708            0   -1.9009777    5.7478153    1042.8978 
     600    2.2112838   -4.6895875            0   -1.3765009    5.7138268    1079.0368 
     700    2.3146746   -4.4629638            0  -0.99497044    5.6088298    1118.0222 
     800    2.4734008     -4.39503            0   -0.6892229    5.7937797    1123.7282 
     900    2.4206618   -4.2767239            0  -0.64993368    5.5531987    1146.9555 
    1000    2.3618098   -4.2459295            0  -0.70731524    5.7000582    1143.3852 
Loop time of 0.165241 on 12 procs for 1000 steps with 864 atoms

Performance: 1045743.608 tau/day, 6051.757 timesteps/s
99.5% CPU use with 12 MPI tasks x no OpenMP threads

MPI task timing breakdown:
Section |  min time  |  avg time  |  max time  |%varavg| %total
---------------------------------------------------------------
Pair    | 0.068223   | 0.074974   | 0.08011    |   1.3 | 45.37
Neigh   | 0.011888   | 0.012716   | 0.013937   |   0.5 |  7.70
Comm    | 0.055538   | 0.061368   | 0.068599   |   1.6 | 37.14
Output  | 0.00017158 | 0.00017732 | 0.0002113  |   0.0 |  0.11
Modify  | 0.014244   | 0.014561   | 0.014885   |   0.2 |  8.81
Other   |            | 0.001445   |            |       |  0.87

Nlocal:        72.0000 ave          80 max          66 min
Histogram: 2 1 2 2 1 0 2 0 0 2
Nghost:        1314.75 ave        1327 max        1295 min
Histogram: 1 0 0 2 3 0 0 1 2 3
Neighs:        6211.67 ave        7136 max        5326 min
Histogram: 2 0 0 2 1 4 1 0 0 2

Total # of neighbors = 74540
Ave neighs/atom = 86.273148
Neighbor list builds = 80
Dangerous builds = 2

# Equilibrate just above the melting temperature to avoid step fn in T

fix 1 all npt temp 1.25 1.25 0.1 iso 5.68 5.68 0.5 mtk yes tchain 5 pchain 5
run 1000
Per MPI rank memory allocation (min/avg/max) = 3.634 | 3.634 | 3.634 Mbytes
Step Temp E_pair E_mol TotEng Press Volume 
    1000    2.3618098   -4.2459295            0  -0.70731524    5.7000582    1143.3852 
    1100    1.8617945   -4.5967525            0    -1.807293    5.9593679    1083.5566 
    1200      1.66126   -5.0091582            0   -2.5201524    5.9308167    1028.0056 
    1300    1.4533368   -5.3154554            0   -3.1379734    5.5185254    997.93023 
    1400    1.3100587   -5.5224566            0    -3.559643    5.2858775     978.0358 
    1500    1.3306301   -5.7450087            0   -3.7513736    5.2687861    956.68836 
    1600    1.2302857    -5.777427            0   -3.9341343     5.385203    950.58576 
    1700    1.2545134   -5.8251615            0   -3.9455694    5.6370291    940.07281 
    1800    1.2669685   -5.8434457            0   -3.9451925    6.1076728    931.13358 
    1900    1.2975362   -5.8185374            0   -3.8744858    5.5765884    942.23221 
    2000    1.2225624   -5.8503078            0   -4.0185867    5.1330896    948.19804 
Loop time of 0.171156 on 12 procs for 1000 steps with 864 atoms

Performance: 1009605.472 tau/day, 5842.624 timesteps/s
99.8% CPU use with 12 MPI tasks x no OpenMP threads

MPI task timing breakdown:
Section |  min time  |  avg time  |  max time  |%varavg| %total
---------------------------------------------------------------
Pair    | 0.070112   | 0.077291   | 0.088356   |   1.8 | 45.16
Neigh   | 0.0097307  | 0.010568   | 0.011574   |   0.5 |  6.17
Comm    | 0.054248   | 0.065897   | 0.073502   |   2.1 | 38.50
Output  | 0.00017822 | 0.00018397 | 0.00021902 |   0.0 |  0.11
Modify  | 0.014821   | 0.015309   | 0.015777   |   0.2 |  8.94
Other   |            | 0.001907   |            |       |  1.11

Nlocal:        72.0000 ave          79 max          65 min
Histogram: 1 1 0 4 0 1 1 3 0 1
Nghost:        1466.08 ave        1476 max        1447 min
Histogram: 1 1 0 0 2 0 0 4 1 3
Neighs:        7466.67 ave        8131 max        6694 min
Histogram: 1 0 2 0 3 1 3 0 0 2

Total # of neighbors = 89600
Ave neighs/atom = 103.70370
Neighbor list builds = 67
Dangerous builds = 0


# Small amount of linear quench

fix 1 all npt temp 1.25 ${temp} 0.1 iso 5.68 5.68 0.5 mtk yes tchain 5 pchain 5
fix 1 all npt temp 1.25 0.6 0.1 iso 5.68 5.68 0.5 mtk yes tchain 5 pchain 5
run 2000
Per MPI rank memory allocation (min/avg/max) = 3.634 | 3.634 | 3.634 Mbytes
Step Temp E_pair E_mol TotEng Press Volume 
    2000    1.2225624   -5.8503078            0   -4.0185867    5.1330896    948.19804 
    2100    1.2363523   -5.8701821            0      -4.0178    5.3904373    940.87858 
    2200    1.2072755   -5.9211574            0   -4.1123402    5.7282123    929.18664 
    2300    1.1779431   -5.9359287            0    -4.171059    6.3298472    917.37187 
    2400    1.1588946   -5.9927181            0   -4.2563882    5.8513669    920.44429 
    2500    1.0704723   -6.0257426            0   -4.4218925    5.9212238    914.05737 
    2600    1.0522357   -6.1068222            0   -4.5302954    5.7080128    910.64254 
    2700    1.0618788   -6.1941204            0   -4.6031458     5.465821    908.05712 
    2800   0.96891951    -6.143398            0   -4.6917008    5.9434658    903.64569 
    2900   0.96063216   -6.2300494            0   -4.7907689    5.7838948    897.42571 
    3000   0.95968651   -6.3020184            0   -4.8641547    5.9952124    890.11678 
    3100   0.89257805   -6.2596658            0   -4.9223483    6.2387442    887.08328 
    3200   0.85338938   -6.3327229            0   -5.0541205    5.8770602     887.0646 
    3300   0.83645025   -6.4010717            0   -5.1478485    5.9832646     880.0661 
    3400   0.79742497   -6.4544304            0   -5.2596773      5.90851    876.23009 
    3500   0.79791442   -6.5754495            0   -5.3799632    5.6639606     870.3755 
    3600   0.75935837   -6.6003897            0   -5.4626705    5.9530847    864.37075 
    3700   0.73630477   -6.6519349            0   -5.5487561    5.9705784    859.44039 
    3800   0.69970081   -6.7217449            0   -5.6734085     5.698075    857.76827 
    3900   0.63793892   -6.7526886            0   -5.7968878    5.4754228    857.73887 
    4000   0.59879929   -6.8072299            0   -5.9100706    5.3174204    855.59307 
Loop time of 0.348962 on 12 procs for 2000 steps with 864 atoms

Performance: 990366.955 tau/day, 5731.290 timesteps/s
99.9% CPU use with 12 MPI tasks x no OpenMP threads

MPI task timing breakdown:
Section |  min time  |  avg time  |  max time  |%varavg| %total
---------------------------------------------------------------
Pair    | 0.15365    | 0.16995    | 0.18352    |   2.1 | 48.70
Neigh   | 0.016123   | 0.017462   | 0.018501   |   0.5 |  5.00
Comm    | 0.11324    | 0.12654    | 0.14346    |   2.5 | 36.26
Output  | 0.00037413 | 0.00038636 | 0.00045385 |   0.0 |  0.11
Modify  | 0.029235   | 0.03005    | 0.030815   |   0.3 |  8.61
Other   |            | 0.004573   |            |       |  1.31

Nlocal:        72.0000 ave          78 max          68 min
Histogram: 2 0 2 1 3 1 0 2 0 1
Nghost:        1586.75 ave        1597 max        1573 min
Histogram: 1 1 1 1 0 2 2 1 0 3
Neighs:        8348.75 ave        9317 max        7348 min
Histogram: 1 2 1 1 0 2 1 2 1 1

Total # of neighbors = 100185
Ave neighs/atom = 115.95486
Neighbor list builds = 106
Dangerous builds = 0

#############################
# F R E E Z E  S Y S T E M  #
#############################

# Define solid atoms. This closely follows ten Wolde  Ruiz-Montero and Frenkel  Faraday Discuss  1996  104  93-110
# Compute components of the per-atom q6 vector
compute q6 all orientorder/atom degrees 1 6 components 6 nnn NULL cutoff 1.3 # compute the Q6 parameter.
                                                                             # Use all neighbours within 1.3 unit cell.

# get number of connections
compute coord_number all coord/atom orientorder q6 0.5

# An atom is solid if it has 8 or more connections (of a possible 14)
variable is_solid atom c_coord_number>=8
group solid dynamic all var is_solid    # Must be dynamic to update
dynamic group solid defined

# do clustering
compute cluster solid cluster/atom 1.3 # Create a cluster where all atoms within are solid and max 1.3 units from another member

# define chunks one chunk per cluster
compute clus_chunks solid chunk/atom c_cluster nchunk every compress yes  # Says which atoms are in which chunk

# count the size of each chunk
compute size_chunks solid property/chunk clus_chunks count


# Find the maximum entry in the vector of chunk sizes
variable max_n equal max(c_size_chunks)


# Thermo style which includes this variable
# thermo_style custom step temp pe vol v_max_n

thermo ${N}  # Print the thermo information every 100 steps
thermo 100  

# Reset the npt fix at a lower temperature (below freezing)

compute myRDF all rdf 100
fix 2 all ave/time 1 50 100 c_myRDF[*] file pcf.rdf mode vector


compute msd all msd com yes
variable twopoint equal c_msd[4]/6/(step*dt+1.0e-6)
fix 9 all vector 10 c_msd[4]
variable fit equal slope(f_9)/6/(10*dt)
thermo_style custom step temp pe c_msd[4] v_twopoint v_fit v_max_n press vol density


fix 1  all npt temp  ${temp} ${temp}  0.1  iso  5.68  5.68  0.5  mtk yes tchain  5  pchain  5
fix 1  all npt temp  0.6 ${temp}  0.1  iso  5.68  5.68  0.5  mtk yes tchain  5  pchain  5
fix 1  all npt temp  0.6 0.6  0.1  iso  5.68  5.68  0.5  mtk yes tchain  5  pchain  5

dump dmp2 all dcd ${N} traj.dcd
dump dmp2 all dcd 100 traj.dcd
dump dmp3 all dcd ${N} traj_unwrap.dcd
dump dmp3 all dcd 100 traj_unwrap.dcd
dump_modify dmp3 unwrap yes


# fix rnuntil all halt ${N} v_max_n >= 3980 error soft message no   # Stop when solidified

run 100000 # 5000000  # Run for this many steps
Neighbor list info ...
  update every 1 steps, delay 10 steps, check yes
  max neighbors/atom: 2000, page size: 100000
  master list distance cutoff = 3.8
  ghost atom cutoff = 3.8
  binsize = 1.9, bins = 5 5 5
  5 neighbor lists, perpetual/occasional/extra = 1 4 0
  (1) pair lj/cut, perpetual
      attributes: half, newton on
      pair build: half/bin/atomonly/newton
      stencil: half/bin/3d
      bin: standard
  (2) compute orientorder/atom, occasional
      attributes: full, newton on
      pair build: full/bin/atomonly
      stencil: full/bin/3d
      bin: standard
  (3) compute coord/atom, occasional
      attributes: full, newton on
      pair build: full/bin/atomonly
      stencil: full/bin/3d
      bin: standard
  (4) compute cluster/atom, occasional
      attributes: full, newton on
      pair build: full/bin/atomonly
      stencil: full/bin/3d
      bin: standard
  (5) compute rdf, occasional, copy from (1)
      attributes: half, newton on
      pair build: copy
      stencil: none
      bin: none
Per MPI rank memory allocation (min/avg/max) = 9.703 | 9.706 | 9.708 Mbytes
Step Temp PotEng c_msd[4] v_twopoint v_fit v_max_n Press Volume Density 
    4000   0.59879929   -6.8072299 1.5804609e-30 3.2926265e-32 8.3333333e+20            2    5.3174204    855.59307    1.0098259 
    4100   0.62478755   -6.8840341  0.027030414 0.00054939859   0.02474405            9    5.5412473    847.98172    1.0188899 
    4200   0.59031339   -6.8786016  0.044251988 0.00087801553  0.019458183            5    5.8208465    843.77481    1.0239699 
    4300   0.59721776   -6.9093309  0.053649081 0.0010397107  0.015009174            2    5.3671541    847.45005    1.0195291 
    4400   0.57184289   -6.8966978  0.062261577 0.0011791964  0.012545545            7     5.676123      844.387    1.0232275 
    4500   0.62818626   -6.9101888  0.067821232 0.0012559486  0.010562056            5    5.5242404    845.75536     1.021572 
    4600   0.61257104    -6.922496  0.076059157 0.0013778831 0.0093567565            9    6.0523644    837.69538    1.0314012 
    4700   0.60983779   -6.9372641  0.080613174 0.0014293114 0.0085097553           12    5.6543433    841.86924    1.0262876 
    4800   0.55745614   -6.9204102  0.086588361   0.00150327 0.0078230915            8     5.520913    844.02519    1.0236661 
    4900   0.55978882   -6.9412211  0.092352561 0.0015706216 0.0072595192            7    5.5751024    842.14717    1.0259489 
    5000    0.6301266    -6.958236  0.099920583 0.0016653429 0.0069205724           16    5.5489322    841.36824    1.0268988 
    5100   0.61978689   -6.9390004   0.10615854 0.0017346165 0.0066949426            4    5.9181153    838.59805     1.030291 
    5200   0.57397977   -6.9724089   0.11090689 0.0017773539 0.0064774478           10    5.2922832    843.57949     1.024207 
    5300   0.61222206   -6.9834548   0.11149176  0.001753015 0.0061886692            6    5.4667638     840.9259    1.0274389 
    5400    0.6135842   -6.9547249   0.11727428  0.001809788 0.0059008551            9    6.2338554    833.22922    1.0369295 
    5500   0.58853285   -6.9529176   0.12373757 0.0018748114 0.0057210485           10    5.7339914    840.01967    1.0285473 
    5600    0.6132727   -6.9562911   0.12939992 0.0019255939 0.0055599876            7    5.3714896    844.43056    1.0231747 
    5700    0.5909543   -6.9445936   0.13563634 0.0019829872 0.0054700645            9    5.9543561    836.92374    1.0323521 
    5800   0.61161267   -6.9657844   0.13713733 0.0019703638 0.0053402956           16    5.7229552    838.93345    1.0298791 
    5900   0.59145948   -6.9457457   0.13787009 0.0019473176 0.0051862444           10    5.6154132    841.04688    1.0272911 
    6000   0.59638537   -6.9957239   0.13746225 0.0019091978 0.0049943154           17    5.5800251    838.49782    1.0304141 
    6100   0.61289214   -6.9958462   0.14610491 0.0019959685 0.0048417635           14    5.8211992    836.00249    1.0334897 
    6200   0.62619006    -6.974999   0.14944113 0.0020086172 0.0047337758           14    5.4828788    841.71355    1.0264775 
    6300   0.59970473   -7.0135098   0.15137054 0.0020022556 0.0046140236           53    5.4059945    839.58207    1.0290834 
    6400   0.60946455   -6.9516081   0.15576627 0.0020282065 0.0045060897           46    6.2793652    833.26628    1.0368834 
    6500   0.61204191   -6.9972358   0.15988167 0.0020497649 0.0044059958           39    5.3423434    841.82412    1.0263427 
    6600    0.5908307   -6.9619498   0.16205146 0.0020461042 0.0043240971           19    5.5688989    840.83226    1.0275533 
    6700   0.58621505   -6.9663893   0.16603206 0.0020650752  0.004235917           16    5.7762647    837.97683    1.0310548 
    6800   0.59980118   -6.9834446   0.17180362 0.0021054363 0.0041627552           31    5.5089095     840.5905    1.0278489 
    6900    0.6059377   -6.9435857   0.17620799 0.0021281157 0.0041049858           34    6.0073002    836.75758    1.0325571 
    7000   0.62393093   -7.0300786   0.17693334 0.0021063491 0.0040476216           47     5.181165    841.80328    1.0263681 
    7100   0.60422443   -6.9952157   0.17974196 0.0021096472 0.0039853951           21    5.6329066    838.10589     1.030896 
    7200   0.57586789   -7.0037938     0.183642 0.0021254859 0.0039331437           38    5.7306123    835.94638    1.0335591 
    7300   0.61419875   -6.9633651   0.18330759 0.0020925523 0.0038660202           13    5.9511817    836.26638    1.0331636 
    7400   0.59640601   -7.0047428   0.19030081  0.002143027 0.0038110018           19    5.1880022    842.61274    1.0253821 
    7500   0.60265987   -6.9751033   0.19381464 0.0021534959 0.0037665978           24    5.8986622    836.17962    1.0332708 
    7600   0.61509659   -6.9335407   0.19571259 0.0021459713 0.0037236131           18    5.9921776    837.71184    1.0313809 
    7700   0.59246806   -6.9806823   0.19777743 0.0021404482  0.003675728           17    5.7864771     836.5226    1.0328472 
    7800   0.62872406   -7.0117353   0.19847583 0.0021204681 0.0036249669           13    5.6768961    836.67904     1.032654 
    7900   0.58355943   -6.9824324   0.20784215 0.0021924276 0.0035857452           19    5.7865789     836.9693    1.0322959 
    8000   0.60467948   -7.0400619   0.21401785 0.0022293525 0.0035615321           23    5.2857573    839.33166    1.0293905 
    8100   0.61823984     -6.93756   0.21829342 0.0022458169 0.0035451874           27    6.3163288    833.45618    1.0366472 
    8200   0.60720532   -6.9678094   0.21691241 0.0022043943 0.0035195603           47    5.6063835    839.81457    1.0287985 
    8300   0.60531161   -7.0180589   0.22025246   0.00221137 0.0034901922           54    5.5914661    837.09152    1.0321452 
    8400   0.57532861   -6.9857573   0.22243727 0.0022067188 0.0034604948           73    5.9254244     834.8494    1.0349172 
    8500    0.6198945   -7.0099906   0.22423548 0.0021983869 0.0034308043           70    5.6518493    837.02129    1.0322318 
    8600   0.59520578   -7.0331133   0.22324114 0.0021631892 0.0033954791           85    5.3605601    838.65683    1.0302188 
    8700    0.5842052   -6.9820659   0.23506143 0.0022515461 0.0033664818           74     5.942737    835.05987    1.0346564 
    8800   0.61888247    -6.974954   0.25112055 0.0023780354 0.0033645719           80    5.9330759    835.21556    1.0344635 
    8900   0.60233943   -7.0617845   0.25483984 0.0023861407 0.0033766245           67    4.7866991    844.32004    1.0233086 
    9000   0.59204242   -7.0085638   0.25563165 0.0023669596 0.0033786988           61     6.015633    831.81566    1.0386917 
    9100   0.57493194   -7.0405863   0.25886535 0.0023705617 0.0033776888           67    6.0637499    829.38365    1.0417374 
    9200   0.60286521    -7.042726    0.2574586 0.0023320524 0.0033730419           70    5.5089841    836.13776    1.0333226 
    9300   0.56247199   -6.9851804   0.25004761 0.0022405698 0.0033542198           73    5.7954365    835.94613    1.0335594 
    9400   0.57769902   -7.0011147   0.24456564  0.002168135 0.0033180099           73    5.4857602    839.11796    1.0296526 
    9500   0.56422506   -7.0332067   0.25427363 0.0022304703 0.0032837623           83    5.3410991    838.85161    1.0299795 
    9600   0.61498216   -7.0070592   0.25670391 0.0022283324 0.0032554456           94    5.7404612    835.89009    1.0336287 
    9700   0.59563262    -7.037246   0.26406333 0.0022685852 0.0032325081          100    5.6255202    835.25672    1.0344125 
    9800   0.61301154   -7.0675378   0.26635586 0.0022649307 0.0032133344          115    5.7445577     831.4446    1.0391552 
    9900   0.61724178   -7.0538162   0.26534662 0.0022335573 0.0031912166          118    5.8503937    831.36501    1.0392547 
   10000   0.64382996   -7.0681859   0.25987282 0.0021656067 0.0031613924          101    5.3747709    836.71033    1.0326154 
   10100   0.63302074   -6.9995452    0.2634841 0.0021739611 0.0031285849           90    6.0535671    833.19647    1.0369703 
   10200   0.59989127   -7.0274122   0.26877102 0.0021958415 0.0031003371           99    5.8706495    832.98469    1.0372339 
   10300   0.59301647   -7.0382508   0.27106702 0.0021930988 0.0030747182          114    5.2924747    839.43959    1.0292581 
   10400    0.5797898   -7.0027442   0.26898816 0.0021553538 0.0030458972          116    5.9418828    833.11332    1.0370738 
   10500   0.61493053   -7.0443539   0.27580081 0.0021888952 0.0030188065          105    5.8303489     832.2351    1.0381682 
   10600    0.6271452   -7.0252251   0.27803979 0.0021858473 0.0029951085           86    5.2476487    841.73752    1.0264482 
   10700   0.60078076   -7.0008874   0.28683493 0.0022339168 0.0029744728           91    5.7355212    836.33675    1.0330767 
   10800   0.58866318   -7.0169889   0.29172378  0.002250955 0.0029624527          116    5.9444119     832.4976    1.0378408 
   10900   0.63512187   -7.0768152   0.29390052 0.0022469458 0.0029476057          102    5.0863996    839.38682    1.0293228 
   11000   0.58028433   -7.0241031    0.2985229  0.002261537 0.0029364831           98    6.1270216    829.88329    1.0411102 
   11100   0.59394546   -7.0389673   0.29750073 0.0022334888 0.0029231888          109    5.5753842    835.74776    1.0338047 
   11200   0.60634206   -7.0147763   0.30367524 0.0022594883 0.0029109813           89     5.147132    842.55003    1.0254584 
   11300   0.57730027   -6.9577484   0.30599135 0.0022565733 0.0028993467          105    6.2814488    832.07353    1.0383698 
   11400   0.64511531    -7.077104   0.30502092  0.002229685 0.0028860639          106    5.5353707    833.90503    1.0360892 
   11500   0.59796224    -7.038794   0.31150272  0.002257266 0.0028736128           99    5.6892424    833.93779    1.0360485 
   11600   0.58742003   -6.9678511   0.32122976 0.0023076849 0.0028668007          110    6.1584564    833.35635    1.0367714 
   11700   0.60884218   -7.0545639   0.32378899 0.0023061893 0.0028619359          110    5.0571283    841.00292    1.0273448 
   11800   0.56911275   -7.0084125   0.33017467 0.0023317419 0.0028584049           93    5.8275571    834.30364    1.0355942 
   11900   0.59214826   -7.0105901   0.33793784 0.0023665114 0.0028569292           84    5.7089666    835.69544    1.0338695 
   12000   0.60196697   -6.9934326   0.33642155 0.0023362607 0.0028568804           92     5.810166    836.02261    1.0334649 
   12100   0.61125801   -7.0489042    0.3396165 0.0023389565 0.0028533296           96    5.6911101    833.71433    1.0363262 
   12200   0.60518497      -7.0567   0.34318465 0.0023441574 0.0028515199          113    5.4660167    835.74624    1.0338066 
   12300   0.58720212   -6.9859063   0.33981863 0.0023022942 0.0028477066          122    5.6257615    838.19393    1.0307877 
   12400   0.58534328   -7.0001702   0.34375428 0.0023101765 0.0028410195          108    5.5340498    838.98054    1.0298213 
   12500   0.56429214   -7.0102711   0.33750281 0.0022500186 0.0028302623           94    5.8053595     834.0917    1.0358573 
   12600   0.59767559   -7.0139167   0.33781683 0.0022342382 0.0028191197           76    5.6173323    837.09769    1.0321376 
   12700   0.58800929   -7.0301589   0.33059895 0.0021692844 0.0028018387          104    5.6206126    836.01897    1.0334694 
   12800   0.60873504   -6.9921189   0.33578153 0.0021860776 0.0027834131          123     5.755203    837.10403    1.0321298 
   12900   0.60886782    -7.026134   0.33116199 0.0021392893 0.0027640831          114    5.3655771    839.24871    1.0294922 
   13000   0.57525691   -7.0082746   0.33090704 0.0021211989 0.0027431628          127    5.8398958    834.13814    1.0357997 
   13100   0.58839928   -7.0483939    0.3440841 0.0021888301 0.0027260155          120    5.3208776    837.92253    1.0311216 
   13200   0.57366606   -7.0599276    0.3487263 0.0022015549 0.0027127174          131    5.8310214    831.09893    1.0395874 
   13300   0.61043072   -7.0447895    0.3537174 0.0022162743 0.0027013291          117    5.5677337    835.59366    1.0339954 
   13400   0.60090324    -7.042489   0.34656366 0.0021552465 0.0026882369          151    5.8843354    831.42285    1.0391824 
   13500   0.60939551   -7.1107543   0.34235258 0.0021132875 0.0026705957          153    5.4531028     832.9484    1.0372791 
   13600   0.57362889   -7.0747546   0.35104642 0.0021510196 0.0026537859          157    5.5181136    833.34243    1.0367887 
   13700   0.59866393   -6.9966234   0.35497356 0.0021592065 0.0026402783          146    6.6249832    825.87937    1.0461576 
   13800   0.61016698   -7.0644448   0.35777319  0.002160466 0.0026270612          100    5.1587482    839.17692    1.0295803 
   13900   0.56594828   -7.0282563   0.35073163 0.0021027076 0.0026115118          100    5.6887985    834.72879    1.0350667 
   14000   0.59779289   -7.0197059   0.35042599 0.0020858689 0.0025937082          104    5.9473232    832.12863     1.038301 
   14100   0.60415449   -7.0473314   0.34675163 0.0020493594 0.0025740104          100    5.2085282    839.63522    1.0290183 
   14200   0.57704429   -7.0269586   0.34491862 0.0020241702 0.0025530102          104    5.7765603    833.87984    1.0361205 
   14300   0.63255545   -7.0114023   0.34022405 0.0019826576 0.0025305325           89    5.9226115    833.71303    1.0363278 
   14400   0.60023453   -7.0218712   0.35097144 0.0020310847 0.0025096153          110    5.4961795     837.9081    1.0311393 
   14500   0.59745406   -7.0584163   0.36300431 0.0020862316 0.0024935756          118    5.6211198    833.96087    1.0360198 
   14600   0.63088632   -7.0719576   0.37197566 0.0021231486 0.0024821883          123    5.8697595    830.26646    1.0406298 
   14700   0.58749395   -7.0714487   0.37680399  0.002136077 0.0024731253          138     5.598346    833.52018    1.0365676 
   14800   0.58532599   -7.0426909   0.37738473 0.0021249139 0.0024629291           98    5.0818228    841.19471    1.0271106 
   14900   0.60487034   -7.0101752   0.37254899 0.0020836073 0.0024521779          108    6.0436422    832.37321    1.0379959 
   15000   0.62179668   -7.0951118   0.36544245 0.0020302358 0.0024375432          122     5.463871     833.6661    1.0363862 
   15100   0.60646826   -7.0601313   0.37109749 0.0020479993 0.0024230382          113    5.6396667    833.65878    1.0363953 
   15200   0.59771658   -7.0345752   0.37182416 0.0020385096 0.0024090485          122    5.7523459    834.10503    1.0358408 
   15300   0.61959172   -7.0332261   0.37347388 0.0020341714 0.0023957171           97    5.2701771    839.82159    1.0287899 
   15400   0.57383808   -6.9814852   0.37974877 0.0020549175 0.0023828006          112    6.0684424    833.42152    1.0366903 
   15500   0.61802093     -7.07337   0.38328077 0.0020606492 0.0023724149          104    5.3534339    836.41269    1.0329829 
   15600   0.60123788   -7.0309668   0.37231194 0.0019888457 0.0023595987          121    5.9822913    831.34674    1.0392775 
   15700   0.58505303   -7.0537068   0.36457628 0.0019351182 0.0023425516          139    5.6933833    833.39546    1.0367227 
   15800   0.61311914   -7.0489587   0.36660629 0.0019335774 0.0023238278          126    5.4076334    837.33914      1.03184 
   15900    0.5927243    -7.044559   0.37244053 0.0019519944 0.0023073215          139    5.9510599    830.71441    1.0400686 
   16000   0.58097359    -7.050847   0.37970762 0.0019776438 0.0022927761          143    5.5086101    835.29586     1.034364 
   16100   0.60460605   -6.9978157   0.38790892 0.0020078101 0.0022813201          156    5.8790069    834.35001    1.0355366 
   16200    0.5843015   -7.0272078   0.38446611 0.0019777063 0.0022695944          162    5.6438394    835.33857    1.0343111 
   16300   0.57139025   -7.0426497   0.38726978 0.0019799068 0.0022568238          149    5.2539839    838.99027    1.0298093 
   16400   0.62412501   -7.0567918   0.38771733 0.0019701083 0.0022449715          152     6.052865    828.89435    1.0423524 
   16500   0.60485061   -7.0348102   0.39201327 0.0019798649 0.0022336986          132    5.9280894    831.65436    1.0388931 
   16600   0.58261147    -7.041482   0.39700354 0.0019929896 0.0022233583          147    5.4559071    836.85302    1.0324394 
   16700   0.61435053   -7.0684278   0.39838569 0.0019879525 0.0022136997          130    5.5774578    833.62085    1.0364424 
   16800   0.59125676   -7.0628898   0.39479966 0.0019583316 0.0022031823          145    6.1909405    826.64165    1.0451929 
   16900    0.5973746   -7.0604377   0.39706545 0.0019579164 0.0021923414          161    5.3178677    837.13255    1.0320946 
   17000   0.59586084   -7.0213345   0.38954528 0.0019095356 0.0021800761          139    5.7181747    834.98216    1.0347526 
   17100   0.58582568    -7.073029   0.38402759 0.0018714794 0.0021659246          167    5.8681783    829.83451    1.0411715 
   17200   0.61451641   -7.0863074   0.38903426 0.0018848559 0.0021521148          173    5.5047612    833.85196    1.0361551 
   17300   0.62264246   -7.0260603   0.39003311 0.0018787722 0.0021390405          148    6.1364407     830.0608    1.0408876 
   17400   0.59110679   -7.0739403   0.38213631 0.0018301547 0.0021243454          166    5.2595438    837.16598    1.0320534 
   17500   0.56460654   -7.0518278   0.38058521 0.0018123105  0.002108033          176    5.6683517    833.17565    1.0369962 
   17600   0.62176781   -7.0603122   0.37949078 0.0017968313 0.0020919109          177    5.6223387    833.81469    1.0362015 
   17700   0.60676525   -7.0843655   0.37860502 0.0017825094 0.0020756826          173    5.6192195    831.85202    1.0386463 
   17800   0.58016926   -7.0682976   0.37930506 0.0017757727  0.002058765          171    5.4822503    834.35401    1.0355317 
   17900   0.61258227   -7.0448837   0.38309065  0.001783476 0.0020432554          171    5.5874404    834.98996     1.034743 
   18000   0.59691492   -7.0700436   0.38665135 0.0017900525 0.0020283653          185    5.6506986    833.21696    1.0369448 
   18100   0.59764447   -7.0539309   0.39531016 0.0018200283 0.0020150005          197    5.7872411    831.77509    1.0387423 
   18200   0.59388255   -7.0788045   0.39954556  0.001829421 0.0020029789          200    5.5415516    833.39611    1.0367219 
   18300   0.60545816   -7.0621039   0.39721118  0.001808794 0.0019919182          182    5.8479973    830.42514    1.0404309 
   18400   0.60176421    -7.022874   0.39928749 0.0018083672 0.0019801448          166    5.5442375    836.76268    1.0325508 
   18500   0.62936671    -7.043487   0.39926307 0.0017984822 0.0019683146          172    5.9667377    831.05427    1.0396433 
   18600   0.61481082   -7.0871702   0.40406909 0.0018103453 0.0019574718          184    5.6278919    832.01941    1.0384373 
   18700   0.57459733   -7.1122566   0.40793384 0.0018178869  0.001947307          185    5.0491761    837.00928    1.0322466 
   18800    0.6104367   -7.0426959   0.40159453 0.0017801176 0.0019363527          190    6.1943483    828.18268    1.0432481 
   18900   0.62960601   -7.0808361   0.40247556 0.0017745835 0.0019249596          180    5.4885069    834.23742    1.0356764 
   19000   0.59611837   -7.0587323   0.40382259 0.0017711516 0.0019142507          192     5.550435    834.69227     1.035112 
   19100   0.59734352   -7.0470393   0.41041414 0.0017906376 0.0019034207          181    5.7902073    832.08802    1.0383517 
   19200   0.59534596   -7.0167866   0.41243739 0.0017900928 0.0018946716          174    5.7627426    834.67487    1.0351336 
   19300   0.60682417   -7.0734879   0.40544941 0.0017506451 0.0018844934          175     5.626659    833.15358    1.0370237 
   19400   0.61551971    -7.090086   0.40551354 0.0017418966 0.0018731886          202    5.6884811    830.97423    1.0397434 
   19500   0.60182021   -7.0636783   0.40613855 0.0017356348 0.0018624755          185    5.7452999    831.39565    1.0392164 
   19600   0.61853202   -7.0443109   0.41061816 0.0017458255 0.0018519034          197    5.7380708    833.59923    1.0364693 
   19700   0.61601934   -7.0360543   0.41397509 0.0017511636 0.0018424639          171    5.9231051    831.59098    1.0389723 
   19800   0.57309562   -7.0585585   0.41439773 0.0017440981 0.0018331478          201    5.6270257     833.2089    1.0369548 
   19900   0.59178403    -7.034172    0.4183325 0.0017518111 0.0018238603          218     5.638475    834.80138    1.0349767 
   20000   0.58257578   -7.0340568   0.43158432  0.001798268 0.0018167722          186    5.6134729     835.5982    1.0339898 
   20100   0.59574009   -7.0652716   0.42979466 0.0017819015 0.0018104345          181    5.4827534    834.82884    1.0349427 
   20200   0.60713238   -7.0878985   0.43316518  0.001786985 0.0018038309          192    5.9863876    827.30445    1.0443556 
   20300    0.5848466   -7.0260347   0.44022584 0.0018071668 0.0017981446          174    5.5012127     837.3001    1.0318881 
   20400   0.58417957   -7.0291219   0.43724354 0.0017861255 0.0017926118          195    5.6250179    835.65303    1.0339219 
   20500   0.61003962   -7.0769846   0.43620324 0.0017731838 0.0017863581          216    5.7838177    830.91312    1.0398199 
   20600   0.60112644   -7.0847718   0.44121521 0.0017848511 0.0017804807          184    5.4720865    834.17662    1.0357519 
   20700    0.6231281   -7.0772869    0.4488454  0.001806946 0.0017757033          197    5.5939011    833.02695    1.0371813 
   20800   0.61058407   -7.0565584   0.45042232 0.0018045765 0.0017714846          193    5.7878108    832.12093    1.0383106 
   20900   0.59138263   -7.0690033   0.44703937 0.0017824536 0.0017668468          205    5.5309055    833.90949    1.0360837 
   21000    0.6054048    -7.070626   0.44665737 0.0017724498 0.0017617129          244    5.5635614    833.70958    1.0363321 
   21100   0.59854669   -7.0513275   0.44193535 0.0017454003 0.0017556072          220    5.8749454    831.00824    1.0397009 
   21200   0.59453219   -7.0692526   0.44526004  0.001750236  0.001749487          255    5.5027306    834.49276    1.0353595 
   21300   0.59776035    -7.076004   0.45289065 0.0017718726 0.0017440352          239    5.6845707    831.96869    1.0385006 
   21400   0.60589136   -7.0872588   0.46393087 0.0018065843 0.0017403623          262    5.6501199     831.0473     1.039652 
   21500   0.60394874   -7.0409023   0.46545677  0.001804096 0.0017372129          269    6.0758153    829.14613    1.0420359 
   21600   0.61420131   -7.0947306   0.47447582 0.0018305394 0.0017348563          249     5.465402    833.25457     1.036898 
   21700   0.57623698   -7.0527227   0.47004853 0.0018051018 0.0017326813          230    5.8433076    830.89124    1.0398473 
   21800   0.60876895   -7.0595872   0.46289968 0.0017694941 0.0017286566          256    5.5577488    834.26533    1.0356417 
   21900   0.58515075   -7.0740502   0.46058542 0.0017526081 0.0017242838          235    5.7854129    830.49578    1.0403424 
   22000   0.58746982   -7.1075483   0.46141093 0.0017477686 0.0017193053          249    5.5992977    830.64794    1.0401519 
   22100   0.59511222   -7.0322501   0.46270527 0.0017447408 0.0017146456          280    6.0384148     830.6835    1.0401073 
   22200   0.60515112   -7.0614587   0.46649312 0.0017511003 0.0017102644          247    5.4950279     835.3296    1.0343223 
   22300   0.62824427    -7.059899   0.46538673 0.0017391133 0.0017057271          250    5.6617686    833.08072    1.0371144 
   22400   0.58851974   -7.0657935   0.46345744  0.001724172 0.0017010719          267    5.7728479    831.33158    1.0392965 
   22500   0.59822695   -7.0877542    0.4652494 0.0017231459 0.0016957579          283    5.3432655     834.8245    1.0349481 
   22600   0.57725784   -7.0871012    0.4758526 0.0017546187 0.0016914182          265    5.3129422    834.97048    1.0347671 
   22700   0.59691627   -7.0766744   0.47638428 0.0017488409 0.0016879146          274    6.0821493    826.82901    1.0449561 
   22800   0.61370144   -7.0567402   0.47978213 0.0017535896 0.0016843673          294    5.8679062    831.15557    1.0395166 
   22900   0.57444753   -7.0717054   0.48286168 0.0017571385 0.0016811408          271    5.1774806    837.85239    1.0312079 
   23000   0.62863529   -7.0470121   0.47582658 0.0017240093 0.0016772372          293    5.5592672    835.40142    1.0342333 
   23100   0.58202768   -6.9938031   0.47673917 0.0017198382 0.0016728307          302    6.3058807    829.23476    1.0419245 
   23200   0.58808027   -7.0878488   0.47623498 0.0017106141 0.0016685462          269    5.2118333    836.81087    1.0324914 
   23300   0.58145461   -7.0552226   0.47219508 0.0016888236 0.0016637252          311    5.9597596    829.35019    1.0417795 
   23400   0.61943433   -7.0424176   0.46924132 0.0016710873 0.0016582942          310    5.9147058    831.16941    1.0394993 
   23500   0.59959107    -7.048744   0.47017695 0.0016672941 0.0016523474          314    5.7243085    832.85284    1.0373982 
   23600   0.60845763   -7.1228197   0.47565356 0.0016795676 0.0016472669          337    5.4972217    830.70162    1.0400846 
   23700   0.59183693   -7.0726303   0.49080899   0.00172577 0.0016432119          324    5.7400711    831.16799     1.039501 
   23800   0.60281471   -7.0590292   0.51037851 0.0017870396 0.0016413107          330    5.6107772    833.74031    1.0362939 
   23900   0.58474984   -7.0551847   0.52344017 0.0018251052 0.0016414456          303    5.9289103    829.57439    1.0414979 
   24000   0.61165406   -7.0787046   0.52478627 0.0018221745 0.0016419277          315    5.6813206    831.29964    1.0393364 
   24100   0.60791739   -7.0346179   0.52648602  0.001820491 0.0016424916          304    5.5758142    835.75043    1.0338014 
   24200   0.58005669   -7.0292263   0.52688149 0.0018143302 0.0016425203          315    6.0946627    829.38728    1.0417329 
   24300   0.59934866    -7.060979   0.52225283 0.0017909905 0.0016423678          317    5.5525708    834.18342    1.0357434 
   24400   0.59097406   -7.0544928   0.51508694 0.0017591767 0.0016412634          342    5.6600831    833.39397    1.0367246 
   24500   0.59946346   -7.1092595   0.51710028 0.0017588444 0.0016394817          372    5.6095445    830.22666    1.0406797 
   24600   0.58781226   -7.1318553   0.51536155 0.0017458047 0.0016375187          420    5.6816461    827.89822    1.0436065 
   24700   0.60854882   -7.0935299    0.5220589 0.0017613323  0.001636099          427    5.8793946    828.26871    1.0431397 
   24800   0.61035807    -7.090767   0.53070154 0.0017832713 0.0016352879          404    5.5426422    832.31206    1.0380722 
   24900   0.57114847   -7.0860204   0.52690167 0.0017633924 0.0016342373          339    5.5106066    832.65778    1.0376412 
   25000   0.62132213   -7.0621327   0.52381528 0.0017460509 0.0016326655          402    6.2006749    826.44187    1.0454456 
   25100    0.5905659    -7.097651   0.53244986 0.0017677618 0.0016313751          391    5.2436581     835.4507    1.0341723 
   25200   0.61675799   -7.0326205   0.52872613 0.0017484329 0.0016298523          402    6.0095725    830.32499    1.0405564 
   25300   0.59029809   -7.0761553   0.53990638 0.0017783477 0.0016290425          412    5.8241352    829.54273    1.0415377 
   25400   0.56524776   -7.0855003   0.53728822 0.0017627566 0.0016283063          425    5.4630714    832.89101    1.0373506 
   25500    0.6034008   -7.0674904   0.54002384 0.0017647838 0.0016273853          440    5.5900557    833.52825    1.0365575 
   25600   0.60713879   -7.0700291    0.5495574 0.0017889238 0.0016269983          448    5.8559598    830.02826    1.0409284 
   25700   0.59701604   -7.1274226   0.54345665 0.0017621811 0.0016263691          443    5.5786571    829.47826    1.0416186 
   25800   0.58405403   -7.1334773   0.55980134 0.0018081438  0.001626159          457    5.4460619    830.48716    1.0403532 
   25900   0.62421163   -7.1120169   0.56300923  0.001811484 0.0016268786          442    5.6384683    830.03631    1.0409183 
   26000   0.59376898   -7.1229234   0.56794816 0.0018203466 0.0016279291          428    5.5045491    830.30786    1.0405779 
   26100   0.58401248   -7.1092734   0.56132593 0.0017922283 0.0016284634          453    5.7912815    828.12692    1.0433183 
   26200   0.60059579   -7.1240382    0.5681306 0.0018070311 0.0016286537          478    5.5678263    829.79026     1.041227 
   26300   0.60334484   -7.0914264   0.58486217 0.0018531754 0.0016300778          466    6.0670623    826.16947    1.0457903 
   26400   0.61808985     -7.08224   0.59762799  0.001886452 0.0016326457          411    5.4674444    833.83408    1.0361774 
   26500   0.59260477   -7.0943484   0.60587855 0.0019052784 0.0016360943          437    5.7606033    829.20045    1.0419676 
   26600   0.61363885    -7.151752   0.60049112 0.0018812378  0.001639339          465    5.5381588    828.76145    1.0425195 
   26700   0.57334682   -7.1206189    0.6026111 0.0018808087  0.001642141          465    5.7114182    827.99287    1.0434872 
   26800   0.60058184   -7.0938431   0.59749871  0.001857894 0.0016444963          449    5.8770528    828.28777    1.0431157 
   26900   0.63563154   -7.0987278   0.60046567 0.0018601786 0.0016464739          486    5.8471923    828.48869    1.0428628 
   27000    0.6046208   -7.1184571   0.59879198 0.0018481234 0.0016482332          471    5.2606379    833.87345    1.0361284 
   27100   0.60820589   -7.0932487   0.60605454 0.0018636363 0.0016501138          466     6.064591    826.08754     1.045894 
   27200   0.63553123   -7.1149996   0.60723672 0.0018604066 0.0016522397          456    5.7942974    828.33161    1.0430605 
   27300   0.58529663   -7.1218875   0.61156708 0.0018668104 0.0016541583          492     5.628432     828.9414    1.0422932 
   27400   0.61106427   -7.1356554   0.61508989 0.0018707113  0.001656332          465    5.7030436    827.94336    1.0435496 
   27500   0.60742722   -7.0515233   0.62721771 0.0019006597 0.0016589883          448    6.1210855    828.39492    1.0429808 
   27600   0.61523552   -7.1692319   0.63144771  0.001906545 0.0016619214          460    5.0998342    832.98381    1.0372351 
   27700   0.61972567    -7.130389    0.6410068 0.0019284199  0.001665633          491    6.0540607    824.44518    1.0479775 
   27800   0.59461026   -7.1701316   0.63028526 0.0018893443 0.0016687888          537    5.8596581    823.40345    1.0493034 
   27900   0.59687284   -7.1677071   0.62857196  0.001877455  0.001670992          557    5.4584737    828.24448    1.0431703 
   28000   0.59475353   -7.1303919   0.63886181 0.0019013744 0.0016736094          553    5.5849811    828.84995    1.0424082 
   28100   0.61733261   -7.1211808   0.63687262 0.0018887088  0.001676265          550    5.5463281    830.20141    1.0407113 
   28200   0.59334346   -7.1425309   0.63438659 0.0018746648 0.0016782441          563    5.6693613    827.25708    1.0444154 
   28300   0.59691664   -7.1547148   0.64890953 0.0019108054 0.0016807608          542    5.4384829    829.57884    1.0414923 
   28400   0.59614307   -7.1431253   0.63858007 0.0018737678 0.0016833816          555    6.1657167    821.50941    1.0517226 
   28500   0.60391873   -7.1908695   0.64467219 0.0018850064 0.0016854973          582    5.4397489    827.01773    1.0447176 
   28600   0.59922282   -7.1810869   0.63471176 0.0018493932 0.0016869498          598    5.6899514    824.68433    1.0476736 
   28700   0.59458252   -7.1705897   0.63636756 0.0018477571 0.0016880755          580    5.4516971     828.5046    1.0428427 
   28800   0.59550719   -7.1328928   0.63951607 0.0018504516 0.0016891846          560    5.5967122    828.89194    1.0423554 
   28900   0.58422306   -7.1643025   0.63604249 0.0018340325 0.0016900084          602    5.8307243    823.63275    1.0490112 
   29000   0.61309807   -7.1718329   0.65184521 0.0018731184 0.0016913316          603    5.6250609    826.44207    1.0454453 
   29100   0.60962631   -7.1183437   0.65464835 0.0018747089 0.0016931059          612    6.0098519     825.2936    1.0469002 
   29200   0.58935188   -7.1901795   0.66163384 0.0018882244 0.0016950904          622    5.4114028    826.93743    1.0448191 
   29300   0.60314517   -7.1640066    0.6691669  0.001903205 0.0016975316          655    5.8985145    823.20285     1.049559 
   29400   0.60065349   -7.1465979   0.67654387 0.0019176413  0.001700245          638    5.6243477    827.76051    1.0437802 
   29500   0.64176397   -7.1410187   0.67827213 0.0019160229 0.0017030807          624    5.7141791    827.59616    1.0439874 
   29600   0.62097464   -7.1812432    0.6863631 0.0019323285 0.0017061336          632    5.7987078    823.86837    1.0487112 
   29700   0.59681791   -7.1859436    0.6760861 0.0018969868 0.0017089657          629    5.6313241    825.15329    1.0470782 
   29800   0.61101163   -7.1843228   0.68257933 0.0019087789 0.0017110726          660     5.738155    823.88988    1.0486838 
   29900   0.60922306   -7.1697907   0.69110434 0.0019261547  0.001713937          650    6.1073049      820.892    1.0525136 
   30000   0.57227923   -7.2092557   0.69949036 0.0019430288 0.0017168866          655    5.2529946    827.42353    1.0442053 
   30100   0.59568168   -7.1622253   0.71170765 0.0019703977 0.0017204277          635    5.7508966    825.05431    1.0472038 
   30200   0.66499535   -7.1816067   0.71252156 0.0019661191 0.0017242604          673    5.5771579    827.45463     1.044166 
   30300   0.60858155    -7.161497   0.71079557 0.0019548833 0.0017279808          680     5.956702    823.32021    1.0494094 
   30400   0.60659321   -7.2250698   0.70646564 0.0019365834 0.0017310707          682    5.4093492    824.84485    1.0474697 
   30500    0.5772588   -7.1867686   0.70871876   0.00193639 0.0017337977          690    5.9640933    820.94601    1.0524444 
   30600    0.5861181   -7.2245162   0.71365802 0.0019435131 0.0017367807          700    5.6496866    822.79092    1.0500845 
   30700   0.57612435   -7.2509979   0.70641473  0.001917521 0.0017393966          708    5.5267092    822.05643    1.0510227 
   30800   0.61338996    -7.245814   0.71875586 0.0019446857 0.0017417576          709    5.7135202    820.79897    1.0526329 
   30900   0.60308684   -7.2171136   0.72581142 0.0019574202  0.001744889          699    5.5348698    824.46519    1.0479521 
   31000   0.62310289   -7.1998732   0.71580009 0.0019241938 0.0017474802          718    5.8030186    822.75756    1.0501271 
   31100    0.6052638    -7.234532   0.72086297 0.0019315728 0.0017498947          731    6.0008482    817.83676    1.0564455 
   31200   0.60266494   -7.2677133   0.72339326 0.0019321401 0.0017523871          707    5.5131402    821.66044    1.0515293 
   31300   0.61903312   -7.2053194   0.72322433 0.0019255173 0.0017547463          709     6.044954    819.29653    1.0545632 
   31400    0.5887829   -7.2548598   0.71465378 0.0018966395 0.0017566854          719    5.6019065      821.533    1.0516924 
   31500   0.57639923   -7.2834139   0.72644287 0.0019218065 0.0017583901          716    5.4518622    821.14474    1.0521897 
   31600   0.58971117   -7.2536953   0.72310393 0.0019069196 0.0017601614          726    5.9897812    816.96306    1.0575754 
   31700   0.62879604   -7.3118306   0.73452712 0.0019309335 0.0017620912          741    5.4436599    819.98194    1.0536817 
   31800    0.5907906   -7.2309139   0.73626448 0.0019294142 0.0017643106          732    6.0207805    817.79715    1.0564967 
   31900   0.63285999   -7.2964228   0.73289941 0.0019145752 0.0017661796          755    5.5699121    819.26066    1.0546094 
   32000   0.56368802   -7.2785187   0.73315408 0.0019092554  0.001767801          749    5.4470652    821.21756    1.0520964 
   32100   0.57393685   -7.2803631   0.75031398 0.0019478556 0.0017698045          773    5.4252995    821.27702    1.0520202 
   32200   0.61575196   -7.2572201   0.74832763 0.0019366657 0.0017722415          788    6.0519654    816.29815    1.0584368 
   32300    0.5893756   -7.2983471   0.75495896 0.0019477785 0.0017745955          792    5.3690188      821.091    1.0522585 
   32400   0.58589058   -7.3126447   0.76576767  0.001969567 0.0017772118          785    5.7053151    816.16145    1.0586141 
   32500   0.60939429   -7.2387279   0.76477618 0.0019609645 0.0017800845          781    6.0450787    816.97609    1.0575585 
   32600   0.60051909   -7.3165602   0.75869646 0.0019394081 0.0017823734          800    5.4004094    819.78083    1.0539402 
   32700   0.59393023   -7.3072803   0.76787401 0.0019568654 0.0017845443          790    5.6678043    817.07354    1.0574324 
   32800   0.63038372   -7.2897199   0.77521367 0.0019695469 0.0017871041          785    5.6731574     818.6672    1.0553739 
   32900   0.61547756   -7.2971576   0.78201147 0.0019807788 0.0017900243          785    5.6306107    818.45706    1.0556449 
   33000   0.56813805   -7.2738079   0.78655997 0.0019862625 0.0017930691          768    5.8486068    816.79218    1.0577966 
   33100   0.62453448   -7.3244764   0.78452969 0.0019751502   0.00179583          778     5.084706     823.1374    1.0496425 
   33200   0.60113904   -7.2669541   0.77556079 0.0019466887 0.0017982574          778    6.3523249    811.45673    1.0647518 
   33300   0.62604299   -7.3109274   0.77771588 0.0019462359 0.0018003992          772    5.7638505      816.002    1.0588209 
   33400   0.59287802   -7.2850913   0.79233889 0.0019768934 0.0018027738          788    5.4604037    820.70216    1.0527571 
   33500   0.57739136   -7.2816316   0.77494235 0.0019277173 0.0018048852          806    5.9051427    815.68801    1.0592285 
   33600   0.58521815    -7.313701    0.7809368 0.0019368472 0.0018062573          793    5.4242843    819.36502    1.0544751 
   33700   0.62480314   -7.3027102   0.78095745 0.0019311509 0.0018080242          792    5.5225223     819.4795    1.0543278 
   33800   0.59286758   -7.2971563   0.78049833 0.0019243055 0.0018094186          796    5.7967649    816.12687    1.0586589 
   33900   0.57286758   -7.3182392   0.79355899  0.001950735 0.0018109563          791    5.4698215    818.19013    1.0559893 
   34000   0.59078467   -7.3035277   0.80585178 0.0019751269 0.0018131932          819    5.5390026    818.41187    1.0557032 
   34100   0.57246345   -7.2742356   0.81098796 0.0019818865 0.0018155922          802    5.6620038    818.92814    1.0550376 
   34200   0.60156647   -7.2912419   0.81028304 0.0019743739 0.0018180381          799    5.8764765    815.02609    1.0600888 
   34300   0.60012541   -7.3538322   0.80830479 0.0019638114 0.0018203073          788    5.3264061    818.01061     1.056221 
   34400   0.58874936   -7.3667825   0.80081561 0.0019399603 0.0018222189          788      5.87495    810.82251    1.0655846 
   34500   0.60058712   -7.3063243   0.80986489 0.0019561954 0.0018237966          799    6.1492837    811.48538    1.0647142 
   34600   0.61989956   -7.3473539   0.82232579 0.0019805534 0.0018260095          789     5.191321    820.12505    1.0534979 
   34700   0.60425387   -7.3478715   0.80860397 0.0019418923 0.0018278143          785    6.0116145     810.5631    1.0659256 
   34800   0.59751249     -7.35747   0.79857138 0.0019122878 0.0018291053          804    5.8170492    811.85282    1.0642323 
   34900   0.60610577   -7.3343851   0.80617458 0.0019249632 0.0018299371          799    5.6438915    815.32745    1.0596969 
   35000   0.61354344   -7.3448541   0.81165902 0.0019325215   0.00183107          808    5.2471511    819.08559    1.0548348 
   35100   0.59035644   -7.3665623   0.81739867 0.0019406426  0.001832463          811    5.5864667    813.78636    1.0617037 
   35200   0.62248809   -7.3220597   0.82031167 0.0019420257 0.0018339508          800    6.3993237    807.92026    1.0694125 
   35300   0.61265721   -7.3577274   0.81911221 0.0019336926 0.0018352563          804    5.5918369    814.88232    1.0602758 
   35400   0.59776974   -7.3508736   0.81600459 0.0019209147 0.0018362939          799    5.7877993    812.79639    1.0629969 
   35500   0.59970016   -7.3889581   0.80700219 0.0018943713 0.0018370999          816    5.9954247    808.06792    1.0692171 
   35600   0.62510407   -7.4141654    0.8050374 0.0018844508 0.0018372922          819    5.0174758    817.78052    1.0565182 
   35700   0.59227419   -7.3388287   0.80303331 0.0018744942 0.0018371823          815    5.8268487    812.57058    1.0632922 
   35800   0.59227819   -7.3422827   0.82258036 0.0019147587 0.0018376184          819    5.8348533    812.31681    1.0636244 
   35900   0.59164149   -7.3486162   0.82328896   0.00191107 0.0018383436          833    5.8752838    811.96834    1.0640809 
   36000   0.58968744   -7.3939617    0.8255157 0.0019109159 0.0018391427          825    5.5190558    813.13073    1.0625598 
   36100   0.61456574   -7.3262813   0.81815972  0.001888642 0.0018395007          835    5.8130563    814.24209    1.0611095 
   36200    0.6093685   -7.3659138   0.81511753 0.0018764215 0.0018395507          823    5.4369074    816.04048     1.058771 
   36300   0.60158856   -7.3918594   0.79805336 0.0018320784 0.0018388403          833    5.6230533    812.56652    1.0632976 
   36400   0.59281917   -7.3769483   0.79680206 0.0018241805 0.0018377142          848    5.7428507    811.72654    1.0643979 
   36500    0.5810383   -7.3096173   0.80613727  0.001840496 0.0018367471          847    5.9522584    814.01819    1.0614013 
   36600   0.57074823   -7.3631131    0.8071048 0.0018376703 0.0018359811          838    5.5861325    813.92504    1.0615228 
   36700   0.59817594   -7.4103756   0.80663784 0.0018316027  0.001835089          839    5.3244885    813.83583    1.0616392 
   36800   0.63239351    -7.375501   0.81402898 0.0018433627 0.0018343752          844    5.6888182    813.00914    1.0627187 
   36900   0.60901347   -7.3530981   0.81935956 0.0018504055 0.0018338391          837    6.0738723    809.67873    1.0670899 
   37000   0.60395208   -7.4054518   0.81481594  0.001835171 0.0018331743          850     5.506318    812.70037    1.0631224 
   37100   0.62918834   -7.3862055   0.80941714 0.0018180978 0.0018322109          854    5.5263982    814.07887    1.0613222 
   37200   0.57510174   -7.3521121   0.80554585 0.0018045382 0.0018308699          854    6.3901614    805.97328    1.0719958 
   37300   0.60790329   -7.4372635   0.81160858 0.0018132452 0.0018296187          852     5.252157    813.59252    1.0619567 
   37400   0.61914441   -7.3587615   0.81983042 0.0018267166 0.0018285964          852    6.0226939    810.27594    1.0663034 
   37500   0.60788447    -7.383364   0.81852148 0.0018189366 0.0018277136          843    5.5375007     813.7746    1.0617191 
   37600    0.5690086   -7.3706644    0.8189128 0.0018149663 0.0018265765          848    5.5277147    814.06898    1.0613351 
   37700   0.63307631   -7.3816888   0.82314393 0.0018195047 0.0018255416          841    5.9532707    809.64259    1.0671375 
   37800   0.61317461   -7.3756824   0.83056968 0.0018310619 0.0018247765          845    5.6010752    813.96724    1.0614678 
   37900   0.60499421    -7.410579   0.84016947 0.0018473383 0.0018240872          844    5.5251272    812.48276    1.0634072 
   38000   0.62045083   -7.4115702   0.84438893 0.0018517301 0.0018237922          846    5.7944045    809.82334    1.0668994 
   38100   0.61414323   -7.3812538   0.83522913 0.0018268353 0.0018232545          845    6.0485591    808.50471    1.0686394 
   38200   0.61325352   -7.4232934   0.83139816 0.0018136958  0.001822392          850    5.8539504    807.83861    1.0695206 
   38300   0.57800151   -7.4472914   0.84272423 0.0018336036 0.0018215374          848    5.5333358    810.06717    1.0665782 
   38400   0.59954447   -7.3910417   0.82795551 0.0017967784 0.0018205433          840    5.8235217    810.04321    1.0666098 
   38500   0.58917782   -7.4170586   0.84010988 0.0018184196 0.0018193784          851    5.3131772    813.88595    1.0615738 
   38600   0.59724025   -7.3891575    0.8430073 0.0018199639 0.0018184772          856    5.7308102    811.03361    1.0653073 
   38700   0.59206975   -7.4463949    0.8456705 0.0018209959 0.0018176009          856    5.3833459    811.40218    1.0648234 
   38800   0.57465618    -7.403972   0.83816885 0.0018001908 0.0018165148          848    5.6553749    811.11308    1.0652029 
   38900   0.58748904   -7.3888547   0.83764859 0.0017944485 0.0018151503          854    5.8485736    809.85708    1.0668549 
   39000   0.58228106   -7.4007859   0.84880828 0.0018136929  0.001814027          855    5.6123755    811.67961    1.0644594 
   39100   0.59466633   -7.3730875   0.84057439 0.0017915055 0.0018129079          859    5.9570624     809.7605    1.0669821 
   39200   0.59737112   -7.4501397   0.84466552 0.0017956325 0.0018116741          857    5.4530553     811.0189    1.0653266 
   39300   0.62743582   -7.4131445     0.840938 0.0017831594  0.001810289          845    6.0844236    806.30776    1.0715511 
   39400   0.59729122   -7.4237703   0.84775196 0.0017930456  0.001809056          853    5.4164312    812.79237    1.0630021 
   39500   0.59189099   -7.4319302   0.86867844 0.0018326549 0.0018081719          854    5.3407539    813.06131    1.0626505 
   39600   0.56526355   -7.4005775   0.86716811 0.0018248487 0.0018077465          849    6.0341169    806.90925    1.0707524 
   39700   0.60184584   -7.4191748   0.87422614 0.0018350674  0.001807198          858    5.4610755    812.59737    1.0632572 
   39800   0.60417863   -7.4104788   0.86870929 0.0018189055 0.0018067811          854    5.6293246    810.90781    1.0654725 
   39900   0.60992042   -7.4579427   0.86220822  0.001800769 0.0018058708          855    5.6429907    808.24175    1.0689871 
   40000   0.61655469   -7.4244379   0.85278335  0.001776632 0.0018045603          850    5.6884135    809.87379    1.0668329 
   40100   0.63838595    -7.366317   0.85736517 0.0017817231 0.0018032683          858    6.2493181    807.37463    1.0701352 
   40200   0.62699385   -7.4728425   0.86063837 0.0017840762 0.0018019912          862    4.9485437    815.14775    1.0599306 
   40300   0.58467908    -7.395494   0.86764776 0.0017941434 0.0018008141          853    5.9557305    808.45783    1.0687014 
   40400   0.61866916   -7.4126387   0.87016028  0.001794885 0.0017997462          855     5.971392    807.45192    1.0700327 
   40500   0.57917172   -7.4444373    0.8812373 0.0018132455 0.0017990132          849    5.6170287    808.41322    1.0687604 
   40600   0.60105243   -7.4635156    0.8818307 0.0018099973 0.0017982839          846    5.2728041    812.04638    1.0639786 
   40700   0.61920146   -7.4325345   0.88891219 0.0018200495 0.0017975987          853    5.8240758    808.04282    1.0692503 
   40800   0.57650362   -7.4060526   0.89107467 0.0018200054 0.0017971922          853    5.7737821     809.0697    1.0678932 
   40900   0.58051344   -7.4442376   0.88839175 0.0018100891 0.0017965827          851    5.5704821    809.42426    1.0674254 
   41000   0.58202028   -7.4851259   0.87769565 0.0017839342 0.0017955215          850    5.7046857    805.72416    1.0723273 
   41100   0.60889361   -7.4337444   0.88563315 0.0017956876  0.001794573          855    5.9333182    806.17572    1.0717266 
   41200   0.58795475   -7.4652504   0.87937826 0.0017786777  0.001793413          853    5.7129288    807.05479    1.0705593 
   41300     0.584237   -7.4285182   0.89267534 0.0018012012 0.0017924995          859    5.7421529    808.56691    1.0685572 
   41400   0.60441798   -7.4556101   0.89747922 0.0018065201 0.0017918054          857    5.5689049     808.7453    1.0683215 
   41500   0.60157454   -7.4628205   0.90339355 0.0018140432 0.0017911649          856    5.7949939    805.94071    1.0720392 
   41600   0.57133961   -7.4774021   0.89944691 0.0018017766 0.0017906056          856     5.720658    805.51142    1.0726105 
   41700   0.59031364   -7.4529699   0.90307466 0.0018047055 0.0017898709          857    5.5374854    809.31664    1.0675673 
   41800    0.6065407   -7.4370927   0.89975325 0.0017937664 0.0017891076          858    5.8993144    806.44689    1.0713663 
   41900   0.57479827   -7.4783409   0.90078851 0.0017915444 0.0017882122          854    5.4618851    808.60313    1.0685093 
   42000   0.61256878   -7.4926651   0.89527288  0.001776335 0.0017872068          853    5.3558175    809.49857    1.0673274 
   42100   0.62497052   -7.4253537   0.88651856 0.0017547873 0.0017858072          850    6.2112428    803.79375    1.0749026 
   42200   0.62838329   -7.4659388   0.89230773  0.001762061 0.0017844945          857    5.6045378    808.26027    1.0689626 
   42300   0.58562973   -7.4517337    0.8966104 0.0017663719 0.0017832089          849     5.652779    808.05875    1.0692292 
   42400   0.60129181   -7.4411988   0.91104825 0.0017905822 0.0017822528          839     5.851629    806.76528    1.0709435 
   42500   0.60965569   -7.4525944   0.89887556 0.0017625011 0.0017810588          843    5.3907619    811.14919    1.0651555 
   42600   0.58677367   -7.4713544   0.90206502 0.0017646029 0.0017798283          845    5.7018782    806.52599    1.0712612 
   42700   0.57326536   -7.4808293   0.90473312 0.0017656774 0.0017785925          855    5.4629912    808.71339    1.0683637 
   42800   0.62135844   -7.4640224   0.90632837  0.001764658  0.001777414          847    5.7069416    807.25571    1.0702928 
   42900   0.59979336   -7.4839391   0.90296028 0.0017540021 0.0017761257          850    5.4526378    808.43591    1.0687304 
   43000   0.60568598   -7.4910518   0.90168184 0.0017474454 0.0017747405          846    5.2176992    810.91537    1.0654626 
   43100   0.60776051   -7.4087966    0.8952527 0.0017309603 0.0017730796          849    5.9421843    807.79794    1.0695744 
   43200   0.58310219   -7.4518609   0.89357065 0.0017237088 0.0017713347          850     5.430053     810.5127    1.0659919 
   43300   0.62679552    -7.482165   0.89626596 0.0017249152 0.0017695724          845    5.9273252    803.97459    1.0746608 
   43400   0.61909941   -7.4974683    0.8932517  0.001715153 0.0017677998          849    5.6462655    805.96422    1.0720079 
   43500   0.62039115   -7.4894369   0.89586736  0.001716221 0.0017659396          842    5.4628646     808.5245    1.0686133 
   43600   0.62365464   -7.4297724   0.90063679 0.0017214006 0.0017641802          848    5.8933952    807.02191    1.0706029 
   43700   0.61413406   -7.4926565   0.91056295   0.00173639 0.0017626862          851    5.4252574    808.63908    1.0684618 
   43800   0.59750283   -7.4590976   0.89931341 0.0017110224 0.0017609898          850    6.0153159    804.16493    1.0744065 
   43900   0.60822566   -7.4620606   0.91167972 0.0017305993 0.0017592614          851    5.5682144    808.87612    1.0681487 
   44000   0.64233535   -7.4683893   0.90502252 0.0017140578 0.0017577032          856    5.9013908    805.43902    1.0727069 
   44100    0.5887837   -7.4612793   0.88827337 0.0016785211 0.0017556519          854    5.8541838    805.18755    1.0730419 
   44200   0.59878339   -7.4543802     0.894685 0.0016868118 0.0017533893          852    5.8265068    806.36186    1.0714792 
   44300   0.60384966   -7.4380844   0.90730181 0.0017067378 0.0017514484          850    5.9252516     806.4262    1.0713938 
   44400   0.57616817   -7.4579274    0.9238888 0.0017340255 0.0017498729          852    5.4344831    810.12662       1.0665 
   44500   0.58026603   -7.4527894   0.92191509 0.0017264327 0.0017485403          849    5.7105439    807.28958    1.0702479 
   44600   0.61805147   -7.4160462   0.91829654 0.0017158007 0.0017470291          858    6.1810791    805.05073    1.0732243 
   44700   0.58563089    -7.461307    0.9111197 0.0016985826 0.0017453004          853    5.6419072    807.64946     1.069771 
   44800   0.59421953   -7.4609573   0.90986535 0.0016924579 0.0017432957          852    5.7953696    806.36744    1.0714718 
   44900   0.61530892   -7.4484094   0.91483648 0.0016979148 0.0017414881          850    5.5861702    809.77635    1.0669613 
   45000   0.56651921   -7.4346856   0.91374658 0.0016921233 0.0017396382          853    5.8739264    806.64516    1.0711029 
   45100   0.60576742   -7.4827012   0.91126415 0.0016837844 0.0017377029          850    5.6693692    806.73974    1.0709774 
   45200   0.63977598    -7.456522   0.92440395 0.0017042845 0.0017359392          856    5.4966709    810.30501    1.0662652 
   45300   0.62563006   -7.4678626   0.92832997 0.0017077446  0.001734394          852    5.5337577    809.08362    1.0678748 
   45400    0.6298059    -7.517871   0.93308385  0.001712709 0.0017328931          854    5.7273571    804.20965    1.0743467 
   45500   0.59444938   -7.5015819   0.93062992 0.0017044504 0.0017314344          849    5.6892425     805.2413    1.0729703 
   45600   0.61129728   -7.4899262   0.93160645 0.0017024971 0.0017298233          846    5.5963033    806.86193    1.0708152 
   45700     0.616482   -7.5082478   0.93652636 0.0017077432 0.0017283627          850    5.4669263     806.9529    1.0706945 
   45800   0.58213261   -7.5178974   0.93314485 0.0016978618 0.0017267798          852    5.6513108    804.16003     1.074413 
   45900    0.6057938   -7.4701409   0.93870826 0.0017042633 0.0017252673          855    5.8675846    804.95472    1.0733523 
   46000   0.58827338   -7.4984708   0.93400309 0.0016920346 0.0017236911          847     5.236847    810.28659    1.0662894 
   46100   0.57906066   -7.5490269   0.92611991 0.0016741141 0.0017218499          852    5.4144633    804.69922    1.0736931 
   46200   0.57938329   -7.5204758   0.93347776 0.0016837622 0.0017199781          851    5.8111726    802.07468    1.0772064 
   46300   0.61550813   -7.5061637   0.92952128 0.0016730044 0.0017182062          846     5.787044    803.76479    1.0749413 
   46400   0.60697509   -7.4863647   0.93874163 0.0016859584 0.0017164373          841    5.6762392    806.10004    1.0718273 
   46500   0.62306907   -7.4689175   0.95159784 0.0017053725  0.001714935          851    5.7561167    806.42937    1.0713896 
   46600   0.61656599   -7.5104568   0.94326341 0.0016868086 0.0017135619          855    5.8130586    803.21481    1.0756774 
   46700   0.59689918   -7.5335494   0.95192338 0.0016986498  0.001712033          857    5.5665616    804.04397    1.0745681 
   46800   0.59648967    -7.485687    0.9582756 0.0017063312 0.0017107816          857     6.115327    801.46676    1.0780235 
   46900   0.60042064   -7.5121446   0.96440701 0.0017135874   0.00170963          858    5.6082962    805.09441    1.0731661 
   47000    0.5978083   -7.5173833   0.95628329 0.0016955377 0.0017083018          861    5.6058237    804.93782    1.0733748 
   47100   0.60637148   -7.5067179   0.94159333 0.0016659471 0.0017067531          860    6.2815867    798.46463    1.0820767 
   47200   0.60347584   -7.5795395   0.93494376 0.0016506775 0.0017048766          859    5.4971735    802.52107    1.0766073 
   47300    0.6003458   -7.5055316   0.94621313 0.0016670421 0.0017029414          859    5.4884188    806.79775    1.0709004 
   47400   0.63780381    -7.523506   0.93797653 0.0016490445 0.0017011049          858    5.6542766    804.64133    1.0737703 
   47500   0.60435461   -7.5186581   0.94268061 0.0016538256 0.0016991817          853    5.9648444    800.94138    1.0787306 
   47600   0.61124718   -7.5388114   0.95641475 0.0016743956 0.0016974344          856    5.6829311    802.93636    1.0760504 
   47700   0.62045179   -7.4875735   0.96372397 0.0016836547 0.0016960198          856    5.7223588     805.5585    1.0725478 
   47800   0.59257677   -7.4702141   0.96052091 0.0016745483 0.0016945905          860    6.0316349    802.91274    1.0760821 
   47900   0.57877742    -7.514966   0.95264314 0.0016573471 0.0016928264          859    5.4168534    806.96286    1.0706813 
   48000   0.57368334   -7.4987241   0.95440045 0.0016569452 0.0016910834          858     5.694511    805.03615    1.0732437 
   48100   0.63241453   -7.4817963    0.9442166 0.0016358569 0.0016891525          857    6.0706176      802.521    1.0766073 
   48200     0.607633   -7.5529385   0.93658528 0.0016192691 0.0016869987          859    5.3311991    806.00469    1.0719541 
   48300   0.59660554   -7.5042648   0.94071421 0.0016230404 0.0016847612          859    5.6895085     804.5141    1.0739402 
   48400   0.59326548   -7.5103549   0.95371782 0.0016420761 0.0016827592          862    5.6515903    804.54889    1.0738937 
   48500   0.59434023   -7.5784021   0.95767769 0.0016454943 0.0016809998          858    5.2343047    805.16373    1.0730737 
   48600   0.59017864   -7.4814409   0.95827961 0.0016431406 0.0016792179          858    6.1810204    800.80153     1.078919 
   48700   0.58799039   -7.5271235   0.95491565 0.0016340103 0.0016773237          858    5.1582878    809.14858    1.0677891 
   48800   0.61235822   -7.4932438   0.95916852 0.0016379244 0.0016754492          858    5.5140831    807.59196    1.0698472 
   48900   0.60084246   -7.5177727   0.95634086 0.0016297561 0.0016735702          849    5.9264142    801.45226     1.078043 
   49000    0.6047177   -7.5617484   0.96369483 0.0016389368 0.0016717824          853    5.3637537    805.42075    1.0727312 
   49100   0.61347587   -7.4866454   0.95480272  0.001620507  0.001669838          855    5.9336337    803.41651    1.0754073 
   49200   0.59877457   -7.4912453   0.95653405 0.0016201457 0.0016678185          855     5.728386    805.07235    1.0731955 
   49300   0.58665673   -7.5720792   0.95053058 0.0016067116 0.0016657121          860    4.9480877    808.66702    1.0684249 
   49400   0.60672302   -7.4719421   0.94822135 0.0015995637 0.0016634897          859    6.4616436    798.57558    1.0819264 
   49500   0.59233276   -7.5221155   0.95412485 0.0016062708 0.0016613296          859    5.4699102    806.29627    1.0715664 
   49600   0.58190241   -7.5594367   0.96019709 0.0016132343 0.0016592885          857     5.285149    805.57503    1.0725258 
   49700   0.58934175   -7.5057362   0.96493993 0.0016179409 0.0016573808          851    5.8641423     802.8712    1.0761377 
   49800    0.6113508   -7.5160553   0.95717439 0.0016016974 0.0016554458          851    5.8537215    802.53401    1.0765899 
   49900   0.57760455   -7.5322671   0.95548853 0.0015956722 0.0016532968          849     5.795924    801.88899    1.0774559 
   50000   0.61322539   -7.5323722   0.96430884 0.0016071814 0.0016512061          857    5.1775376    808.93155    1.0680755 
   50100   0.60626576   -7.4994844   0.96164986 0.0015995506  0.001649158          856    5.9537473    802.13109    1.0771307 
   50200    0.5930331   -7.5353287   0.97042998 0.0016109395 0.0016472823          856    5.7949515    801.50405    1.0779733 
   50300   0.60698971   -7.5064624   0.96087505  0.001591907  0.001645265          858    5.5423651    806.29798    1.0715641 
   50400     0.612024   -7.5019336   0.96065605 0.0015883863 0.0016431727          857    5.9687997    801.88563    1.0774604 
   50500   0.59330261   -7.5669465   0.95328622 0.0015730795  0.001640957          857     5.500103    803.07453    1.0758653 
   50600   0.59242651   -7.5170496   0.95514507  0.001573032 0.0016386016          854     5.612929    804.60688    1.0738163 
   50700   0.60891068   -7.4825883   0.95651042 0.0015721736 0.0016363772          858    6.2707863    799.94924    1.0800685 
   50800   0.61249682   -7.5784282   0.96197621  0.001578045 0.0016341809          862    5.1611321    806.40902    1.0714166 
   50900   0.57323391    -7.523017   0.96464141 0.0015793081 0.0016320485          860    5.8122048    802.34672    1.0768412 
   51000   0.61202187   -7.5503091   0.96002939 0.0015686755  0.001629803          862    5.3982607    805.25069    1.0729578 
   51100   0.58386732   -7.5216957   0.96715622  0.001577228 0.0016276233          861    6.0226727    800.04203    1.0799433 
   51200   0.57573878   -7.5935072   0.97362323 0.0015846732 0.0016256537          862    5.3388939    802.78903    1.0762479 
   51300   0.59385829   -7.5223464   0.97431033 0.0015827003 0.0016236615          861    5.8240142    802.00272    1.0773031 
   51400   0.60384556   -7.5255903   0.97961666 0.0015882241 0.0016217956          860    5.8688218    801.70316    1.0777056 
   51500   0.62306669    -7.494153    0.9787452 0.0015837301 0.0016198567          862    5.8173756    804.46663    1.0740035 
   51600   0.58577584   -7.5198299    0.9714482 0.0015688763 0.0016178983          861    5.5452396    805.14045    1.0731047 
   51700   0.58070343   -7.5495923   0.95060056 0.0015322382 0.0016155219          854    5.5193339     803.6341    1.0751162 
   51800   0.59427186   -7.5009996   0.95038535 0.0015289339 0.0016129562          858    6.0422813    800.71071    1.0790414 
   51900   0.60169883   -7.5204431   0.96373066 0.0015474159 0.0016105268          856    5.8410243    802.37721    1.0768003 
   52000    0.6001088   -7.5672767   0.96896605 0.0015528302 0.0016082586          861    4.9203125    809.55793    1.0672491 
   52100   0.57067172   -7.5183375   0.97678989 0.0015623639 0.0016061133          861    6.0372585    799.65846    1.0804613 
   52200   0.61259812   -7.5210925   0.98920861 0.0015791964 0.0016042011          859    5.7105918    803.70991    1.0750147 
   52300   0.59149562   -7.5174872    1.0019124 0.0015964188 0.0016025603          854    5.6002839    805.11617    1.0731371 
   52400   0.58782599    -7.518579   0.99788148 0.0015869616 0.0016010264          856    5.7841762    802.69451    1.0763746 
   52500   0.59895935   -7.5831502   0.97755711 0.0015516779 0.0015991351          860    5.7254971    800.03837    1.0799482 
   52600    0.6064268   -7.5532311   0.97811088 0.0015496053 0.0015969907          856    5.6107014     802.5878    1.0765177 
   52700    0.6023918   -7.5238211   0.97468325 0.0015412448 0.0015948238          861    5.5599783    804.64339    1.0737676 
   52800   0.62319625   -7.4776565    0.9709058 0.0015323639 0.0015926141          860    5.9263354    803.98435    1.0746478 
   52900   0.60712479   -7.5372768   0.97925475 0.0015426193  0.001590372          862    5.4930487    805.04396    1.0732333 
   53000   0.57706802   -7.5278024   0.98029224   0.00154134 0.0015882793          858    5.7355053    802.70997    1.0763539 
   53100   0.61234611   -7.5217775   0.96410129 0.0015130278 0.0015859978          859     5.372617    807.28006    1.0702605 
   53200   0.63009277   -7.5045437   0.95083288 0.0014893999 0.0015834128          857    6.2168555    799.47768    1.0807056 
   53300   0.58618685   -7.5300333   0.96023979  0.001501313 0.0015807548          860    5.4697803    805.38986    1.0727724 
   53400   0.57531509    -7.516114   0.96280311 0.0015025017 0.0015782067          861    5.5025758    805.92375    1.0720617 
   53500   0.57025717   -7.5270075   0.96482135  0.001502837 0.0015756755          856    6.2058666    797.51797    1.0833612 
   53600   0.57952265   -7.5270759   0.96975707 0.0015077069 0.0015733052          859    5.7557205    802.54255    1.0765784 
   53700   0.59651345   -7.5095309   0.97827813 0.0015181225  0.001570972          858    5.3955143     807.5437    1.0699111 
   53800   0.58368041   -7.5096447   0.97437456 0.0015092543 0.0015686837          861    5.9962636    800.91677    1.0787638 
   53900   0.58960715   -7.5269307   0.96875934 0.0014977726  0.001566351          861    5.7655019    802.86798    1.0761421 
   54000   0.59648841   -7.5321738   0.97346146 0.0015022553 0.0015639672          859    5.6491546    803.34948    1.0754971 
   54100   0.63298666   -7.5249993   0.97077526 0.0014953408 0.0015615812          861     6.190158    798.50208     1.082026 
   54200    0.6235304    -7.593744   0.97270133 0.0014955432 0.0015591407          862    5.2812874    803.68417    1.0750492 
   54300   0.59043701   -7.5801342   0.97684897 0.0014991543  0.001556767          863     5.543639    801.60686    1.0778351 
   54400   0.61571468   -7.5090339   0.97886822 0.0014994917  0.001554485          860    5.9676532    801.49166      1.07799 
   54500   0.58684374   -7.5296635   0.97775717 0.0014950415 0.0015522155          862    5.6461176    803.69099      1.07504 
   54600   0.57486884   -7.5754789   0.96646193  0.001475064 0.0015497752          858    5.6231901    800.87246    1.0788235 
   54700   0.60450529   -7.5538185   0.95009564 0.0014474339 0.0015470291          863    5.6850169    801.88823    1.0774569 
   54800   0.60763628   -7.5129999   0.95120168 0.0014464746 0.0015441456          860    5.9590007    801.36539    1.0781599 
   54900    0.6044842   -7.5306594   0.96839321  0.001469935  0.001541475          859    5.4022075    806.31332    1.0715438 
   55000   0.58409373   -7.5391141   0.96781088 0.0014663801 0.0015389354          859    5.5652101    803.72897    1.0749892 
   55100   0.62480997   -7.5221545   0.97905234 0.0014807204  0.001536597          860    6.0426579    800.23115     1.079688 
   55200   0.61521784   -7.5136215   0.98150715 0.0014817439 0.0015343123          860    5.7935983      803.306    1.0755553 
[...]
   89600   0.60964839   -7.5546823    1.0534625 0.0009797828 0.00089447241          855    5.7113911    801.53671    1.0779294 
   89700    0.5998547   -7.5693611    1.0569468 0.00098192754 0.00089318002          857    5.7626642    800.05461    1.0799263 
   89800   0.62055567   -7.5367678    1.0524753 0.00097668454 0.00089185069          858    5.8320009    801.59824    1.0778467 
   89900   0.63476832   -7.5603276     1.041872 0.00096576932 0.00089050343          859     5.718984    801.10456    1.0785109 
   90000   0.61779261   -7.5790463    1.0304412 0.00095411218 0.00088905419          859    5.6249226    800.99738    1.0786552 
   90100   0.60555579   -7.5512428    1.0354408 0.0009576774 0.0008876096          859    6.0937022    797.56842    1.0832926 
   90200   0.62118177   -7.5575445    1.0338343 0.00095513149 0.00088616126          861    5.4538062    804.01496    1.0746069 
   90300    0.6133928   -7.5360691    1.0284656 0.00094911919 0.00088469905          860    5.6439371    803.11048    1.0758171 
   90400   0.58947449   -7.5401303    1.0330569 0.00095230172 0.00088323701          855    5.6562426    802.56909    1.0765428 
   90500   0.59964184   -7.5568392    1.0388376 0.00095657233 0.00088181852          860    5.7354742     801.0086    1.0786401 
   90600   0.60167067   -7.5191533    1.0475802 0.00096355795 0.00088044805          855    5.8311256    802.44772    1.0767057 
   90700   0.58333927   -7.5630081    1.0271065 0.00094368474 0.00087902237          859    5.3980153    803.99094     1.074639 
   90800   0.60819241   -7.5729686    1.0421811 0.00095648044 0.00087759935          858    5.6105608    801.16825    1.0784252 
   90900   0.60695722   -7.5038928    1.0568765 0.00096890035 0.00087627963          855    5.8196925    803.10327    1.0758268 
   91000   0.59365151   -7.5356478    1.0607431 0.0009713765 0.00087503298          857    5.5770869    803.74645    1.0749659 
   91100   0.60880808   -7.5470216    1.0446441 0.00095558372 0.00087374025          859    5.7974879     800.9363    1.0787375 
   91200   0.62833277   -7.5408395    1.0393132 0.00094966484 0.00087236877          847    5.7355828    802.24733    1.0769746 
   91300   0.58159221   -7.5231261    1.0248537 0.00093542688 0.00087094543          859    5.8991575    801.03672    1.0786022 
   91400   0.61286882   -7.5776055    1.0112326 0.0009219845 0.00086943504          860    5.6990651    800.46278    1.0793756 
   91500   0.62483713   -7.5147667    1.0129889 0.00092257643 0.00086787878          857    6.1719293     799.5725    1.0805774 
   91600   0.59214409   -7.5513276    1.0237884 0.00093139412 0.00086637926          858    5.3683764    805.29666    1.0728965 
   91700   0.59198059   -7.5293186     1.028404 0.00093457291 0.00086491521          859    5.9487172    800.12167    1.0798358 
   91800   0.58933076   -7.5240459    1.0473109 0.00095071794 0.00086355775          861    5.9022812    800.85365    1.0788488 
   91900   0.59157011   -7.5555396    1.0553701 0.0009569914 0.00086228167          859    5.2087363    806.66663    1.0710744 
   92000   0.55917765   -7.5016902    1.0557129 0.00095626171 0.00086100863          854    5.8671017    802.43568    1.0767218 
   92100   0.61430215   -7.5577553    1.0493738 0.00094948767 0.00085972988          855    5.4450833    804.29406     1.074234 
   92200   0.60880517   -7.5535379    1.0388744 0.0009389682 0.00085840953          852    6.0779699    797.79557    1.0829842 
   92300   0.61556284   -7.5991103    1.0316947 0.00093146867 0.0008570399          858    5.4423059    801.83016    1.0775349 
   92400   0.59364002   -7.5313036    1.0350831 0.00093351651 0.00085562923          857    5.8303662     801.5855    1.0778638 
   92500   0.60044561   -7.5347793    1.0326107 0.00093027991 0.00085424447          852    5.5961556    803.93016    1.0747202 
   92600   0.58779264    -7.549912    1.0329826   0.00092961   0.00085287          853     5.717238    801.64289    1.0777866 
   92700    0.5970943    -7.576026    1.0258217 0.00092216983 0.0008514426          856    5.6668683    800.62415    1.0791581 
   92800   0.60890783   -7.5263701    1.0202011 0.00091612886 0.00084999391          852     5.630879    804.15591    1.0744185 
   92900   0.59717627   -7.5640765    1.0266588 0.00092093543 0.00084856603          852    5.4955294    803.35282    1.0754926 
   93000   0.59786119    -7.525917    1.0299782 0.00092291955 0.0008471643          855    6.3101592    796.96099    1.0841183 
   93100   0.60671908   -7.5497604    1.0286909 0.00092077595  0.000845776          858    5.5975412    803.36884    1.0754711 
   93200   0.59253292   -7.5321959    1.0346732 0.00092513701 0.00084438403          858    5.5010619    805.07679    1.0731896 
   93300   0.58082204   -7.5657595    1.0347831 0.00092424355 0.0008430417          859    5.7590443    800.11704     1.079842 
   93400   0.59107907   -7.5352072    1.0466315 0.00093382538 0.00084170632          860    5.7803634    801.89689    1.0774453 
   93500   0.63557211   -7.5605277    1.0460483 0.00093230687 0.00084043906          859    5.6486383     802.2871    1.0769212 
   93600   0.59125207   -7.5622317    1.0515761 0.00093623226 0.00083918288          850    5.4970956    803.02133    1.0759365 
   93700   0.59009097   -7.5161206    1.0436792 0.00092820991 0.00083791349          858    5.9811096    800.57798    1.0792203 
   93800   0.64742435   -7.5334628    1.0507054 0.00093346249 0.00083667038          862    5.6761469    803.50146    1.0752936 
   93900   0.61015293   -7.5582516    1.0487488 0.00093073196 0.00083542475          858    5.9671669    798.60215    1.0818904 
   94000   0.60818926   -7.5837068    1.0452392 0.00092663046 0.00083417187          858    5.4470589    802.51254    1.0766187 
   94100   0.59934982   -7.4832738    1.0417558 0.00092256091 0.00083288541          860    6.0491304     801.9367    1.0773918 
   94200   0.59816078   -7.5380141    1.0389928 0.00091913731 0.00083158168          856    5.4432605    805.35241    1.0728223 
   94300   0.58372245    -7.559469     1.042503 0.00092126461 0.00083028393          859    5.3812341    804.63363    1.0737806 
   94400   0.57195416   -7.5628257    1.0418049 0.00091967236 0.00082899638          856    6.1940967    795.45558      1.08617 
   94500   0.58188246   -7.5450181    1.0380603 0.00091539712 0.0008277029          856    5.7759393     801.1038    1.0785119 
   94600   0.59601163   -7.5615347    1.0401201 0.00091624395 0.00082641266          852    5.0013085    808.60563     1.068506 
   94700   0.56729569   -7.5045474    1.0361722 0.00091180232 0.00082509332          859    6.0603728     800.3576    1.0795175 
   94800   0.58072232   -7.5543499    1.0442076 0.00091790399 0.00082381423          860    5.7110997    801.11966    1.0784906 
   94900   0.58803578   -7.5417598    1.0475646 0.00091988461 0.00082256637          856    5.5968182    803.30747    1.0755533 
   95000   0.59674601    -7.562873    1.0513953 0.00092227657 0.00082133375          858    5.2047627    806.37208    1.0714657 
   95100   0.61359155   -7.5190011    1.0394771 0.00091086319 0.00082005653          859    6.0020982    800.30404    1.0795897 
   95200   0.61768804   -7.5524806    1.0446098 0.0009143993 0.00081880775          857    5.8695085     800.1486    1.0797994 
   95300     0.573043   -7.5408045    1.0419392 0.00091110456 0.00081754405          854    6.0665181    798.10411    1.0825655 
   95400   0.58544833   -7.5300474     1.033653 0.00090291145 0.00081626206          856    5.6343034    803.55555    1.0752212 
   95500   0.59410038    -7.540725    1.0422557 0.00090947267 0.00081498282          857    5.4893889     804.4236     1.074061 
   95600   0.58120688   -7.5638359    1.0364745 0.00090348196 0.00081372492          859    6.0653567    796.71883    1.0844478 
   95700   0.58995982   -7.5835124    1.0439152 0.00090901705 0.00081244439          857    5.3334414     803.5988    1.0751634 
   95800   0.60278695   -7.5203445    1.0372133 0.00090223847 0.00081118415          853    5.9254244    801.05508    1.0785775 
   95900   0.57784197   -7.5386678    1.0345622 0.0008989939 0.0008099096          858    5.5414512    803.93367    1.0747155 
   96000   0.59312041   -7.5742744    1.0353814 0.00089876853 0.00080860646          856    5.2489731    805.30558    1.0728847 
   96100   0.60952571    -7.528013    1.0416267 0.00090324896 0.0008073443          857     6.109277    799.12338    1.0811847 
   96200   0.60450454   -7.5070077    1.0505632 0.00091005129 0.00080611666          856    5.5742156    805.89633    1.0720982 
   96300   0.60891009   -7.5747294     1.055017 0.00091296036 0.00080495155          857    5.5355583    802.24226    1.0769814 
   96400   0.59242108   -7.5325416    1.0584163 0.00091495183 0.00080380647          856    5.9947509    799.80984    1.0802568 
   96500    0.5860573   -7.5129547    1.0452339 0.0009026199 0.00080264247          860    5.7599892    802.99134    1.0759767 
   96600   0.59521843   -7.5516608    1.0385726 0.00089593906 0.00080138602          856    5.3439991    805.09135    1.0731701 
   96700   0.59254184   -7.5660041    1.0324316 0.00088972045 0.00080010481          856    5.7981468    799.53598    1.0806268 
   96800   0.59952001   -7.5375608    1.0273097 0.00088439197 0.00079879784          859    5.7523718    801.90796    1.0774304 
   96900   0.60898359   -7.5374611    1.0412434 0.00089546214 0.00079753411          859     5.539974    804.21208    1.0743435 
   97000    0.6017133   -7.5645616    1.0420164 0.00089520313 0.00079631218          858    5.7765958    800.06116    1.0799174 
   97100   0.61694039   -7.5871173    1.0448777 0.00089673679 0.00079511499          859     5.517834    801.84011    1.0775216 
   97200   0.59775592   -7.5465959    1.0500516 0.00090024995 0.00079393877          859    5.6851611    802.20144    1.0770362 
   97300   0.59854575   -7.5468899    1.0567632 0.00090507295 0.00079280147          862    5.7632246     801.2958    1.0782535 
   97400   0.61401819   -7.5461737    1.0445297 0.00089367699 0.00079163853          861    5.7271669    801.74089    1.0776549 
   97500   0.60170136   -7.5409101    1.0432945 0.00089170466 0.00079042368          856    5.4161012    805.32043    1.0728649 
   97600   0.58993146    -7.558632    1.0380428 0.00088630702 0.00078921085          856    5.6930449    801.14947    1.0784504 
   97700    0.6058061   -7.5728759    1.0365774 0.00088414991 0.00078797382          857    5.5695536      802.092    1.0771832 
   97800   0.61039012   -7.5219651    1.0462506 0.00089148822 0.00078677234          855     5.417901    806.58883    1.0711777 
   97900   0.63022398   -7.5317428    1.0536528 0.00089687842 0.00078560668          860    6.0746836    799.04075    1.0812965 
   98000   0.58589033   -7.5521426    1.0522981 0.00089481135 0.00078447861          854    5.7097538    801.39794    1.0781161 
   98100   0.60329084   -7.5604793    1.0439504 0.00088680801 0.00078330161          853    5.0836824    807.99713    1.0693107 
   98200   0.60144076   -7.5437458    1.0263581 0.00087097598 0.0007820728          856    5.7802693    801.39624    1.0781184 
   98300   0.58801428   -7.5768165    1.0252016 0.0008691095 0.00078078005          859    5.7881494    799.23922     1.081028 
   98400   0.60920856   -7.5228699    1.0341172 0.00087577672 0.00077953812          858     5.909483    801.46876    1.0780208 
   98500   0.59689342    -7.573809    1.0349314 0.0008755765 0.00077829633          859    5.5283624    802.22721    1.0770016 
   98600   0.61635409   -7.5986391    1.0390624 0.00087817981 0.00077710344          856    5.4493112    802.03549    1.0772591 
   98700   0.59408278   -7.5039325    1.0363007 0.00087495838 0.00077589727          855    6.2373795    798.64115    1.0818376 
   98800   0.62717866   -7.5504735    1.0376476 0.0008752088 0.00077469986          857    5.3106389    806.04673    1.0718982 
   98900    0.5956166   -7.5498308    1.0325368 0.00087001748 0.0007734847          855    5.7717866    801.05377    1.0785793 
   99000   0.60163022   -7.5475827     1.032963 0.00086949746 0.00077225113          859    5.9883476    798.81661    1.0815999 
   99100   0.61205326   -7.5396889    1.0333603 0.00086895418 0.00077105459          859    5.8769669    800.53628    1.0792765 
   99200   0.61418592   -7.5269821    1.0390362 0.00087284625 0.00076984765          857    5.4491491    806.31894    1.0715363 
   99300   0.58390793   -7.5473009    1.0398833 0.00087267812 0.00076865646          857    5.5881204    802.92833    1.0760612 
   99400    0.5934959   -7.5350823     1.044835 0.00087595156 0.00076751001          861    5.8079242    801.33601    1.0781994 
   99500   0.61907295   -7.4975289    1.0478604  0.000877605 0.0007663719          863    5.8411993    803.55363    1.0752238 
   99600   0.62271555   -7.5412807    1.0560055 0.00088353873 0.00076524944          852    5.3792848    806.32938    1.0715224 
   99700   0.58587877   -7.5077806    1.0511794 0.00087861867 0.00076416909          854     6.290796    797.81343      1.08296 
   99800   0.60855149   -7.5781345    1.0526495 0.0008789658 0.00076306323          856    5.5370295    802.02169    1.0772776 
   99900   0.60447256    -7.526558    1.0489047 0.00087496217 0.00076195762          856    5.7966526    802.53103    1.0765939 
  100000   0.57462522   -7.5474463    1.0550584 0.00087921536 0.00076084713          856     5.495595    803.83952    1.0748414 
  100100   0.57281149   -7.5726026    1.0470016 0.0008716297 0.00075975277          860    5.5844185    801.37618    1.0781453 
  100200   0.58311394   -7.5087124    1.0356076 0.00086128373 0.00075859796          858    5.7231406    803.76993    1.0749345 
  100300   0.59660217   -7.5261998    1.0377962 0.0008622434  0.000757412          861     5.871245    801.43219      1.07807 
  100400   0.60932097   -7.5778748    1.0443859 0.0008668542 0.00075626923          860    5.7257539    799.97607    1.0800323 
  100500   0.59105073   -7.5680366    1.0360993 0.0008591205 0.00075511794          858    5.6694734    800.97238    1.0786889 
  100600   0.62888437   -7.5412746    1.0357183 0.00085795091 0.00075395007          857    5.7206729    802.68373    1.0763891 
  100700   0.60843981   -7.5404032    1.0396464 0.00086034951 0.00075279872          854    5.7707964    801.79167    1.0775867 
  100800    0.5641908   -7.5748042    1.0312269 0.00085253548 0.00075162695          862    5.5234574    801.67696    1.0777408 
  100900   0.57657088   -7.5462346    1.0358763 0.00085553047 0.0007504373          858    5.4114953    805.15104    1.0730906 
  101000   0.58653347   -7.5132748    1.0549705 0.0008704377 0.00074932475          862    5.8461608     802.1808    1.0770639 
  101100   0.56480932   -7.5604847     1.057067 0.00087130478 0.00074827077          861     5.361924     804.3067    1.0742171 
  101200    0.5771248   -7.5549804    1.0521257 0.00086637491 0.00074720309          857     5.701386    801.32626    1.0782125 
  101300    0.6208694   -7.5423231    1.0510056 0.00086459818 0.00074613329          858    5.8719013    800.66731    1.0790999 
  101400   0.60217102   -7.5772488    1.0487669 0.00086190572 0.00074504846          857    5.4699969    802.92131    1.0760706 
  101500   0.56406334   -7.5625212    1.0465198 0.00085921165 0.0007439605          857    5.3998091    803.95671    1.0746847 
  101600   0.59588801   -7.5037865     1.034553 0.00084855066 0.00074282669          855       6.0788    800.56618    1.0792362 
  101700   0.59482756   -7.5448366    1.0210968 0.00083669024 0.00074163398          858    5.7992938    800.98538    1.0786714 
  101800   0.58560751   -7.5786913    1.0204469 0.00083533634 0.00074040941          862    5.5609616    801.36352    1.0781624 
  101900   0.60142114   -7.5392064    1.0230199 0.00083662082 0.0007391962          857     5.766045    801.86343    1.0774902 
  102000   0.59843933   -7.5307133    1.0273756 0.00083935918 0.00073800319          857    5.7356897    802.47263    1.0766722 
  102100   0.56947882   -7.5735601    1.0267738 0.00083804587 0.00073681745          857    5.4811865    802.39672    1.0767741 
  102200   0.58945721   -7.5339779    1.0439552 0.00085123549 0.00073567481          858    6.0688387    799.02781    1.0813141 
  102300   0.59591744   -7.5152006    1.0638248 0.0008665891 0.0007346477          855    5.4778443    806.05514     1.071887 
  102400   0.58955542    -7.572566    1.0626861 0.00086481613 0.00073366151          858    5.0652971    806.98492     1.070652 
  102500   0.60678566    -7.557198    1.0626344 0.00086393036 0.00073266432          860    5.8957002    799.32124    1.0809171 
  102600   0.60371032   -7.5521507    1.0569687 0.00085848657 0.00073165981          856    5.4836636    803.83931    1.0748417 
  102700     0.639834   -7.5086587    1.0599211 0.00086004635 0.00073065189          857     5.811539    803.60268    1.0751582 
  102800   0.60546086   -7.5339546    1.0435849 0.00084596698 0.0007296162          858    5.9188588    800.27202    1.0796329 
  102900   0.60045909   -7.5545003     1.033037 0.00083660269 0.00072848206          860    5.6814074    801.97523      1.07734 
  103000   0.61138737   -7.4996442    1.0398901 0.00084133502 0.00072737853          859    5.8224346    803.96734    1.0746705 
  103100   0.60592402   -7.5518362    1.0398852 0.00084051503 0.00072626844          859    5.5641598    803.31937    1.0755374 
  103200    0.5993452    -7.551218    1.0444712 0.00084340377 0.00072518697          856     5.538327    803.39655     1.075434 
  103300   0.58984805   -7.5678228     1.029882 0.00083081804 0.00072408082          855    5.9185274    798.42073    1.0821362 
  103400   0.61716917   -7.5632269     1.040162 0.00083829946 0.00072295231          859    5.8897707    799.08568    1.0812357 
  103500   0.61969465   -7.5734866    1.0427362 0.00083956219 0.00072188585          859    5.3015135    804.98487    1.0733121 
  103600   0.59137553    -7.521025    1.0379923 0.00083493592 0.00072079471          857    6.1871985    798.17957    1.0824632 
  103700   0.57208907   -7.6069935    1.0348631 0.00083161609 0.00071970014          860    5.4470847     800.8759    1.0788188 
  103800   0.58851936   -7.5613514    1.0397102 0.0008347063 0.00071861045          852     5.643968    801.72629    1.0776745 
  103900   0.60957103   -7.5315124    1.0428273  0.000836403 0.00071753635          854    5.8595817    801.26796     1.078291 
  104000   0.57995712   -7.5405141    1.0574737 0.00084733471 0.00071653027          858    5.5696138    803.81981    1.0748678 
Loop time of 191.427 on 12 procs for 100000 steps with 864 atoms

Performance: 90269.520 tau/day, 522.393 timesteps/s
99.4% CPU use with 12 MPI tasks x no OpenMP threads

MPI task timing breakdown:
Section |  min time  |  avg time  |  max time  |%varavg| %total
---------------------------------------------------------------
Pair    | 10.239     | 10.996     | 12.002     |  14.9 |  5.74
Neigh   | 0.96821    | 1.0004     | 1.0453     |   2.2 |  0.52
Comm    | 6.5438     | 7.8336     | 8.7382     |  19.9 |  4.09
Output  | 2.5071     | 2.508      | 2.5154     |   0.1 |  1.31
Modify  | 166.74     | 167.19     | 167.74     |   2.5 | 87.34
Other   |            | 1.898      |            |       |  0.99

Nlocal:        72.0000 ave          76 max          70 min
Histogram: 2 4 0 2 0 2 1 0 0 1
Nghost:        1656.42 ave        1670 max        1649 min
Histogram: 2 1 4 1 1 0 1 1 0 1
Neighs:        8857.75 ave       10072 max        8223 min
Histogram: 2 3 2 1 2 0 0 0 1 1
FullNghs:      17797.4 ave       19119 max       16706 min
Histogram: 1 0 2 2 2 3 1 0 0 1

Total # of neighbors = 213569
Ave neighs/atom = 247.18634
Neighbor list builds = 4289
Dangerous builds = 0

#clear
#
#next RN
#
#jump SELF



Total wall time: 0:03:12
