
units lj                  # Use reduced LJ style units
atom_style atomic         # Uncharged point particles
atom_modify map hash      # Needed for indexing of clusters etc
                          # Used to be able to find where atoms are in relation to each other.

# Define a lattice with which to populate the simulation cell. With units
# set to 'lj' the second argument to the lattice command is the reduced
# density rho* and the spacings are multiples of that required to acheive
# that density. Also define a simulation cell called 'box' in lattice units
# and fill it with atoms. Here we're creating a box which is ten lattice
# constants in each direction.
lattice fcc 1.0 spacing 1 1 1                 # All equal sizes - gives the right reduced density.
Lattice spacing in x,y,z = 1.5874011 1.5874011 1.5874011

region box block 0 6 0 6 0 6 units lattice # Defines a region, "box", in lattice units
create_box 1 box                              # Creates a simulation box as specified above,
Created orthogonal box = (0.0000000 0.0000000 0.0000000) to (9.5244063 9.5244063 9.5244063)
  2 by 2 by 3 MPI processor grid
                                              # with one type of atom
create_atoms 1 box                            # Creates particles on lattice points
Created 864 atoms
  using lattice units in orthogonal box = (0.0000000 0.0000000 0.0000000) to (9.5244063 9.5244063 9.5244063)
  create_atoms CPU = 0.001 seconds


# Set the mass of the first (and only) atom type.
mass 1 1.0

# Lennard-Jones interactions between particles, 3.5 sigma cut-off. Apply
# long range tail corrections to energy and pressure and set all coefficients
# to unity since we work in reduced units here. Note that this doesn't shift
# the potential such that it goes to zero at the cutoff. That would require
# pair_modify('shift', 'yes').
pair_style lj/cut  3.5      # non-GPU version
pair_modify tail  yes
pair_coeff 1  1  1.0  1.0   # Intearaction between 1 and 1 set with epsilon = 1 and sigma = 1

write_data data.*
System init for write_data ...
Neighbor list info ...
  update every 1 steps, delay 10 steps, check yes
  max neighbors/atom: 2000, page size: 100000
  master list distance cutoff = 3.8
  ghost atom cutoff = 3.8
  binsize = 1.9, bins = 6 6 6
  1 neighbor lists, perpetual/occasional/extra = 1 0 0
  (1) pair lj/cut, perpetual
      attributes: half, newton on
      pair build: half/bin/atomonly/newton
      stencil: half/bin/3d
      bin: standard

#############################
#   M E L T   S Y S T E M   #
#############################

velocity all create 2.4 2750902 mom yes dist gaussian # Assign velocities
                                                    # Temperature 2.4, random number seed, zero linear momentum
						                                                        # Gaussian distribution

timestep 0.002   # simulation timestep
thermo 100       # output thermodynamic data every 100 steps

# Define a fix  in this case with index 1 applied to all
# particles in the simulation. This fix is for simulations
# in the anisotropic NPT ensemble. Note that we use the MTK
# correction.
fix 1 all npt temp 2.4 2.4 0.1 iso 5.68 5.68 0.5 mtk yes tchain 5 pchain 5 # Use NPT ensemble
                                                                         # Set temperature and pressure and damping
                                                                         # Numbers of thermostats in chain and in barostat
run 1000         # run for 10000 steps
Per MPI rank memory allocation (min/avg/max) = 3.633 | 3.633 | 3.634 Mbytes
Step Temp E_pair E_mol TotEng Press Volume 
       0          2.4   -8.3859253            0    -4.790092     -2.24275          864 
     100    1.3007594   -6.4407842            0   -4.4919034    5.3582762    891.69205 
     200    1.5828213   -6.0796178            0   -3.7081338    6.4338598    907.46239 
     300    1.7629056     -5.73851            0   -3.0972122    5.5953229    954.02439 
     400    1.8733232   -5.2785237            0   -2.4717912    6.0585808    994.36537 
     500      2.02574   -4.9360708            0   -1.9009777    5.7478153    1042.8978 
     600    2.2112838   -4.6895875            0   -1.3765009    5.7138268    1079.0368 
     700    2.3146746   -4.4629638            0  -0.99497044    5.6088298    1118.0222 
     800    2.4734008     -4.39503            0   -0.6892229    5.7937797    1123.7282 
     900    2.4206618   -4.2767239            0  -0.64993368    5.5531987    1146.9555 
    1000    2.3618098   -4.2459295            0  -0.70731524    5.7000582    1143.3852 
Loop time of 0.193683 on 12 procs for 1000 steps with 864 atoms

Performance: 892179.072 tau/day, 5163.073 timesteps/s
99.4% CPU use with 12 MPI tasks x no OpenMP threads

MPI task timing breakdown:
Section |  min time  |  avg time  |  max time  |%varavg| %total
---------------------------------------------------------------
Pair    | 0.067564   | 0.079987   | 0.10286    |   3.9 | 41.30
Neigh   | 0.011819   | 0.013247   | 0.015643   |   1.0 |  6.84
Comm    | 0.05753    | 0.082891   | 0.096623   |   4.2 | 42.80
Output  | 0.00018946 | 0.00019616 | 0.00023442 |   0.0 |  0.10
Modify  | 0.015129   | 0.015749   | 0.016183   |   0.2 |  8.13
Other   |            | 0.001614   |            |       |  0.83

Nlocal:        72.0000 ave          80 max          66 min
Histogram: 2 1 2 2 1 0 2 0 0 2
Nghost:        1314.75 ave        1327 max        1295 min
Histogram: 1 0 0 2 3 0 0 1 2 3
Neighs:        6211.67 ave        7136 max        5326 min
Histogram: 2 0 0 2 1 4 1 0 0 2

Total # of neighbors = 74540
Ave neighs/atom = 86.273148
Neighbor list builds = 80
Dangerous builds = 2

# Equilibrate just above the melting temperature to avoid step fn in T

fix 1 all npt temp 1.25 1.25 0.1 iso 5.68 5.68 0.5 mtk yes tchain 5 pchain 5
run 1000
Per MPI rank memory allocation (min/avg/max) = 3.634 | 3.634 | 3.634 Mbytes
Step Temp E_pair E_mol TotEng Press Volume 
    1000    2.3618098   -4.2459295            0  -0.70731524    5.7000582    1143.3852 
    1100    1.8617945   -4.5967525            0    -1.807293    5.9593679    1083.5566 
    1200      1.66126   -5.0091582            0   -2.5201524    5.9308167    1028.0056 
    1300    1.4533368   -5.3154554            0   -3.1379734    5.5185254    997.93023 
    1400    1.3100587   -5.5224566            0    -3.559643    5.2858775     978.0358 
    1500    1.3306301   -5.7450087            0   -3.7513736    5.2687861    956.68836 
    1600    1.2302857    -5.777427            0   -3.9341343     5.385203    950.58576 
    1700    1.2545134   -5.8251615            0   -3.9455694    5.6370291    940.07281 
    1800    1.2669685   -5.8434457            0   -3.9451925    6.1076728    931.13358 
    1900    1.2975362   -5.8185374            0   -3.8744858    5.5765884    942.23221 
    2000    1.2225624   -5.8503078            0   -4.0185867    5.1330896    948.19804 
Loop time of 0.166621 on 12 procs for 1000 steps with 864 atoms

Performance: 1037081.207 tau/day, 6001.627 timesteps/s
99.8% CPU use with 12 MPI tasks x no OpenMP threads

MPI task timing breakdown:
Section |  min time  |  avg time  |  max time  |%varavg| %total
---------------------------------------------------------------
Pair    | 0.072031   | 0.078571   | 0.086339   |   1.6 | 47.16
Neigh   | 0.010225   | 0.010935   | 0.011558   |   0.4 |  6.56
Comm    | 0.053211   | 0.061246   | 0.0685     |   1.9 | 36.76
Output  | 0.00018234 | 0.00018888 | 0.0002295  |   0.0 |  0.11
Modify  | 0.013637   | 0.013872   | 0.014204   |   0.1 |  8.33
Other   |            | 0.001809   |            |       |  1.09

Nlocal:        72.0000 ave          79 max          65 min
Histogram: 1 1 0 4 0 1 1 3 0 1
Nghost:        1466.08 ave        1476 max        1447 min
Histogram: 1 1 0 0 2 0 0 4 1 3
Neighs:        7466.67 ave        8131 max        6694 min
Histogram: 1 0 2 0 3 1 3 0 0 2

Total # of neighbors = 89600
Ave neighs/atom = 103.70370
Neighbor list builds = 67
Dangerous builds = 0


# Small amount of linear quench

fix 1 all npt temp 1.25 ${temp} 0.1 iso 5.68 5.68 0.5 mtk yes tchain 5 pchain 5
fix 1 all npt temp 1.25 0.65 0.1 iso 5.68 5.68 0.5 mtk yes tchain 5 pchain 5
run 2000
Per MPI rank memory allocation (min/avg/max) = 3.634 | 3.634 | 3.634 Mbytes
Step Temp E_pair E_mol TotEng Press Volume 
    2000    1.2225624   -5.8503078            0   -4.0185867    5.1330896    948.19804 
    2100     1.239107   -5.8687128            0   -4.0122035    5.3947231    940.97356 
    2200    1.2109401   -5.9186032            0   -4.1042954    5.7432816    929.19852 
    2300    1.1789276   -5.9332051            0   -4.1668604    6.3300014    917.62438 
    2400    1.1645133   -5.9882774            0   -4.2435291    5.8636138    920.66562 
    2500    1.0970587   -6.0080113            0   -4.3643279    5.9172188    915.94948 
    2600    1.0644411   -6.0783856            0    -4.483572    5.6773634    913.76223 
    2700    1.0649377   -6.1500494            0   -4.5544917    5.4831012    911.43573 
    2800   0.99325981   -6.1184711            0   -4.6303057    5.9292577    906.74742 
    2900   0.99289986   -6.1810776            0   -4.6934516    6.0918272    897.61376 
    3000   0.96361283   -6.2144182            0   -4.7706719    6.0845854    894.98427 
    3100   0.93182568   -6.2561799            0   -4.8600592    6.1573495    890.04709 
    3200    0.9306026   -6.3426188            0   -4.9483305    5.7455262    889.55766 
    3300   0.85046753   -6.3478845            0   -5.0736597    5.7681681    887.47763 
    3400   0.84318659   -6.4243496            0   -5.1610335    5.5833692    883.82368 
    3500   0.82571996    -6.500448            0   -5.2633016     5.357299    881.05829 
    3600   0.82386533   -6.6074251            0   -5.3730574    5.3232522    873.56926 
    3700   0.77970965   -6.6554158            0    -5.487205    5.3418581    869.12445 
    3800   0.71775586   -6.6745904            0   -5.5992027    5.2414902    868.25895 
    3900   0.68823957   -6.6936417            0   -5.6624772    5.6111044    860.75002 
    4000   0.66073683   -6.7168883            0   -5.7269301    6.0103745    853.05581 
Loop time of 0.344496 on 12 procs for 2000 steps with 864 atoms

Performance: 1003205.948 tau/day, 5805.590 timesteps/s
99.8% CPU use with 12 MPI tasks x no OpenMP threads

MPI task timing breakdown:
Section |  min time  |  avg time  |  max time  |%varavg| %total
---------------------------------------------------------------
Pair    | 0.15689    | 0.17139    | 0.19229    |   2.3 | 49.75
Neigh   | 0.017242   | 0.017976   | 0.019362   |   0.4 |  5.22
Comm    | 0.10066    | 0.12247    | 0.13699    |   2.8 | 35.55
Output  | 0.00034695 | 0.0003598  | 0.00043241 |   0.0 |  0.10
Modify  | 0.027506   | 0.027963   | 0.028658   |   0.2 |  8.12
Other   |            | 0.004342   |            |       |  1.26

Nlocal:        72.0000 ave          79 max          62 min
Histogram: 1 0 0 2 2 2 0 2 1 2
Nghost:        1588.08 ave        1620 max        1560 min
Histogram: 1 0 1 2 3 2 2 0 0 1
Neighs:        8393.58 ave        9763 max        6891 min
Histogram: 1 0 1 1 2 3 1 0 2 1

Total # of neighbors = 100723
Ave neighs/atom = 116.57755
Neighbor list builds = 108
Dangerous builds = 0

#############################
# F R E E Z E  S Y S T E M  #
#############################

# Define solid atoms. This closely follows ten Wolde  Ruiz-Montero and Frenkel  Faraday Discuss  1996  104  93-110
# Compute components of the per-atom q6 vector
compute q6 all orientorder/atom degrees 1 6 components 6 nnn NULL cutoff 1.3 # compute the Q6 parameter.
                                                                             # Use all neighbours within 1.3 unit cell.

# get number of connections
compute coord_number all coord/atom orientorder q6 0.5

# An atom is solid if it has 8 or more connections (of a possible 14)
variable is_solid atom c_coord_number>=8
group solid dynamic all var is_solid    # Must be dynamic to update
dynamic group solid defined

# do clustering
compute cluster solid cluster/atom 1.3 # Create a cluster where all atoms within are solid and max 1.3 units from another member

# define chunks one chunk per cluster
compute clus_chunks solid chunk/atom c_cluster nchunk every compress yes  # Says which atoms are in which chunk

# count the size of each chunk
compute size_chunks solid property/chunk clus_chunks count


# Find the maximum entry in the vector of chunk sizes
variable max_n equal max(c_size_chunks)


# Thermo style which includes this variable
# thermo_style custom step temp pe vol v_max_n

thermo ${N}  # Print the thermo information every 100 steps
thermo 100  

# Reset the npt fix at a lower temperature (below freezing)

compute myRDF all rdf 100
fix 2 all ave/time 1 50 100 c_myRDF[*] file pcf.rdf mode vector


compute msd all msd com yes
variable twopoint equal c_msd[4]/6/(step*dt+1.0e-6)
fix 9 all vector 10 c_msd[4]
variable fit equal slope(f_9)/6/(10*dt)
thermo_style custom step temp pe c_msd[4] v_twopoint v_fit v_max_n press vol density


fix 1  all npt temp  ${temp} ${temp}  0.1  iso  5.68  5.68  0.5  mtk yes tchain  5  pchain  5
fix 1  all npt temp  0.65 ${temp}  0.1  iso  5.68  5.68  0.5  mtk yes tchain  5  pchain  5
fix 1  all npt temp  0.65 0.65  0.1  iso  5.68  5.68  0.5  mtk yes tchain  5  pchain  5

dump dmp2 all dcd ${N} traj.dcd
dump dmp2 all dcd 100 traj.dcd
dump dmp3 all dcd ${N} traj_unwrap.dcd
dump dmp3 all dcd 100 traj_unwrap.dcd
dump_modify dmp3 unwrap yes


# fix rnuntil all halt ${N} v_max_n >= 3980 error soft message no   # Stop when solidified

run 100000 # 5000000  # Run for this many steps
Neighbor list info ...
  update every 1 steps, delay 10 steps, check yes
  max neighbors/atom: 2000, page size: 100000
  master list distance cutoff = 3.8
  ghost atom cutoff = 3.8
  binsize = 1.9, bins = 5 5 5
  5 neighbor lists, perpetual/occasional/extra = 1 4 0
  (1) pair lj/cut, perpetual
      attributes: half, newton on
      pair build: half/bin/atomonly/newton
      stencil: half/bin/3d
      bin: standard
  (2) compute orientorder/atom, occasional
      attributes: full, newton on
      pair build: full/bin/atomonly
      stencil: full/bin/3d
      bin: standard
  (3) compute coord/atom, occasional
      attributes: full, newton on
      pair build: full/bin/atomonly
      stencil: full/bin/3d
      bin: standard
  (4) compute cluster/atom, occasional
      attributes: full, newton on
      pair build: full/bin/atomonly
      stencil: full/bin/3d
      bin: standard
  (5) compute rdf, occasional, copy from (1)
      attributes: half, newton on
      pair build: copy
      stencil: none
      bin: none
Per MPI rank memory allocation (min/avg/max) = 9.702 | 9.706 | 9.708 Mbytes
Step Temp PotEng c_msd[4] v_twopoint v_fit v_max_n Press Volume Density 
    4000   0.66073683   -6.7168883 7.8886091e-31  1.64346e-32 8.3333333e+20           13    6.0103745    853.05581    1.0128294 
    4100   0.63532223   -6.7574762    0.0300009 0.00060977432  0.027092741            3     5.914906    851.52714    1.0146476 
    4200   0.65699323   -6.8186879  0.050635818 0.0010046788  0.022341802            3    5.5319885    852.49828    1.0134918 
    4300   0.64162858   -6.8240691  0.066367735 0.0012861963  0.018726246            3     5.495919    852.67653    1.0132799 
    4400   0.65957465   -6.7689864   0.08061247 0.0015267512  0.016475439            3    5.6782248    854.88278    1.0106649 
    4500   0.65764254   -6.7832478  0.092552619 0.0017139372  0.015012842            2    5.9691202    849.72245    1.0168026 
    4600   0.64142578   -6.8054551   0.10012762 0.0018139059  0.013450594            6    6.0196548    846.94014    1.0201429 
    4700   0.63031686   -6.8540333   0.11165918 0.0019797725  0.012378334            7    5.3629499    852.03154     1.014047 
    4800   0.66593652   -6.8584032   0.11557694 0.0020065439  0.011421738            9    5.6432876    848.65637    1.0180799 
    4900    0.6424793   -6.8500348   0.12041872 0.0020479373  0.010462462            5    6.0972163    842.69258    1.0252849 
    5000   0.65358321   -6.8903471   0.12920205 0.0021533674 0.0097200815            3    5.4846345    848.04345    1.0188157 
    5100   0.64584812   -6.8753895   0.14357609 0.0023460143 0.0092833762            6    5.3059769    852.08617     1.013982 
    5200   0.63574975    -6.889685   0.15622677 0.0025036338 0.0091510382            4    5.6512026    846.12995    1.0211197 
    5300   0.66819736   -6.9021177    0.1639356 0.0025776035 0.0090331949            8    5.7730282     844.0026    1.0236935 
    5400    0.6690685   -6.8311622   0.17661447 0.0027255316 0.0089601733            4    5.6168102    850.64334    1.0157018 
    5500   0.65003793    -6.859186   0.18164674  0.002752223 0.0088485795            4    5.6785818    847.94517    1.0189338 
    5600    0.6358436   -6.8285955   0.18912005 0.0028142862 0.0087058107           10    6.0650877    844.20425     1.023449 
    5700   0.64054335   -6.8767095   0.19827218 0.0028987158  0.008570858            6    5.5280092    848.18781    1.0186423 
    5800   0.66637001   -6.8804008   0.20530802 0.0029498276 0.0084410621            6    5.5914196    847.56016    1.0193967 
    5900   0.65467516   -6.8437916   0.21209285 0.0029956614 0.0083070664           13    5.9367545    845.34466    1.0220683 
    6000   0.65274889   -6.8827475   0.21899801 0.0030416388 0.0081872369           26    5.6114526    846.69556    1.0204376 
    6100   0.61416356     -6.88546   0.22218049 0.0030352524 0.0080271192           22     5.446675    848.24857    1.0185694 
    6200   0.64830236   -6.8347905   0.22579522 0.0030348818 0.0078443971           20    6.0599411     844.5089    1.0230798 
    6300    0.6479282   -6.9262341   0.23411298 0.0030967323 0.0076769098           21    5.0765058    850.67624    1.0156625 
    6400    0.6702339   -6.8374684   0.23448006 0.0030531256 0.0075011062           20    5.7543616    848.52934    1.0182323 
    6500   0.65661016   -6.8557413   0.23234137 0.0029787352 0.0073006763           10    5.7146281    847.53336    1.0194289 
    6600   0.65074388   -6.8687419   0.22976634 0.0029010899 0.0070507444           13     5.758156    845.75745    1.0215695 
    6700   0.64550812   -6.9285839   0.23437988 0.0029151725 0.0068146479           12    5.4279821    846.02649    1.0212446 
    6800   0.67884686   -6.8554922   0.23960052 0.0029362806 0.0066019009           14    5.9898742    844.00127    1.0236951 
    6900   0.66647314   -6.8770233   0.24964462 0.0030150314 0.0064297123           12    5.9329374    843.21088    1.0246547 
    7000    0.6135021   -6.8862529   0.25473042 0.0030325047 0.0062837257           14    5.3830601    848.87651    1.0178159 
    7100   0.61728559   -6.8757697   0.25812492 0.0030296351 0.0061495094           10    5.4424272    849.23388    1.0173876 
    7200   0.67059329   -6.8794399   0.26437538 0.0030599001  0.006030043           17    5.6489925    846.59278    1.0205615 
    7300   0.64932042   -6.8986981   0.27152282 0.0030995753 0.0059287116           17    5.9551507    841.65951    1.0265434 
    7400   0.67633569   -6.8772476   0.27787905 0.0031292684 0.0058481043           14    6.2259214      839.875    1.0287245 
    7500   0.64839747    -6.913871   0.28364691 0.0031516322  0.005768926           14    5.3255374    847.78862     1.019122 
    7600   0.64041093    -6.903948   0.28976536 0.0031772516 0.0057015849           11    5.8770962    841.35511    1.0269148 
    7700   0.68939068   -6.9214129   0.28961335 0.0031343435 0.0056342297           14    5.8251216    841.95016     1.026189 
    7800   0.64420931   -6.9206174   0.29271189 0.0031272636 0.0055511062            9    5.6161267    844.14097    1.0235257 
    7900   0.67246861     -6.92787   0.29175376 0.0030775711 0.0054655601            5     5.498995     845.3902    1.0220133 
    8000   0.66303247   -6.9064612   0.29443991 0.0030670822 0.0053732525           11     5.999856    840.22765    1.0282927 
    8100   0.65327931   -6.9471185   0.30416574  0.003129277 0.0052992928           13    5.4355046    844.39957    1.0232123 
    8200   0.63800292    -6.893249   0.30649827 0.0031148196  0.005228516            7    5.8411541     843.2886    1.0245603 
    8300   0.65564092   -6.8863713   0.30800624  0.003092432 0.0051592674           12    5.7950248    844.50822    1.0230806 
    8400   0.64948482   -6.8990226   0.30879461 0.0030634384 0.0050850624           10     5.758736    843.74985    1.0240002 
    8500   0.62318527   -6.8992937   0.30877393 0.0030271952 0.0050040328            7     5.974984    840.93816    1.0274239 
    8600   0.66911363   -6.9327358   0.31673393 0.0030691271 0.0049273796           11    5.3514666    846.77029    1.0203476 
    8700   0.63633661   -6.8767094   0.33099044 0.0031704063 0.0048789392           13     5.547885    847.91249    1.0189731 
    8800   0.64403111   -6.9077863   0.33067069 0.0031313511 0.0048381112           18    6.0040268    839.58971    1.0290741 
    8900    0.6171235   -6.9095201   0.32805813 0.0030717052 0.0047822157           10    6.1442753    837.38614    1.0317821 
    9000   0.67515418   -6.9418553    0.3319687 0.0030737841 0.0047227262           14     5.386565    845.50698    1.0218721 
    9100   0.67156423   -6.8974848   0.34082206 0.0031210809 0.0046747523           18    5.8255638     843.2547    1.0246015 
    9200   0.64521472   -6.8921392   0.33627832 0.0030459991 0.0046263068           31     5.652545    845.50351    1.0218763 
    9300   0.64517717   -6.9665066   0.33120574 0.0029677932   0.00455987           14    5.3468621    843.85524    1.0238723 
    9400    0.6472041   -6.9311558   0.33644108 0.0029826335  0.004497117           20    5.8319783    840.47766    1.0279869 
    9500   0.64425253   -6.8800824   0.34014882 0.0029837614 0.0044362436           42    6.1827825     840.0207    1.0285461 
    9600   0.65530729   -6.9425114   0.34574606 0.0030012677 0.0043803807           61     5.401535    844.98333    1.0225054 
    9700   0.64376231   -6.9375342   0.34894876 0.0029978414 0.0043302691           35      5.44479    844.97703     1.022513 
    9800   0.69180254   -6.9177061   0.34704192 0.0029510366 0.0042749085            7    5.6065444    844.57238    1.0230029 
    9900   0.65300262   -6.8996354   0.35658235 0.0030015348 0.0042268303           14    5.7664161    843.63354    1.0241414 
   10000   0.64998002   -6.9584124   0.35836276 0.0029863562 0.0041843259           25    5.5856225    841.68904    1.0265074 
   10100   0.65612482   -6.9840896   0.35801516 0.0029539204 0.0041399518           40    5.6453615    839.35803    1.0293581 
   10200   0.64689263   -6.9372307   0.36716216 0.0029996907 0.0040965104           34    6.0534021    837.10614    1.0321272 
   10300   0.65939293   -6.9069589   0.37994421 0.0030739821 0.0040692577           28    5.5631436    845.31661    1.0221022 
   10400     0.611765   -6.9105529   0.38462446 0.0030819266 0.0040463073           29    5.3735587    847.22945    1.0197946 
   10500   0.63652719   -6.9310904   0.39071316  0.003100898 0.0040235445           27    5.4615164    845.02325    1.0224571 
   10600   0.65578998   -6.9123925     0.390362 0.0030688835 0.0040025339           35    5.8134201    841.67842    1.0265203 
   10700   0.65054991    -6.915942   0.39424293 0.0030704276 0.0039803243           25    5.8876171    840.17061    1.0283626 
   10800   0.62748356   -6.9144228   0.39916083 0.0030799445 0.0039597796           61    5.6246481    843.83204    1.0239004 
   10900   0.65686857   -6.9158762   0.39109262 0.0029900046 0.0039325282           37    5.3818485    846.95448    1.0201257 
   11000   0.63939466   -6.9709689    0.3914802  0.002965759 0.0038985654           37    5.4838787    842.28567    1.0257802 
   11100   0.63062189   -6.9221903   0.39301487 0.0029505619  0.003865681           29     5.922175    839.50126    1.0291825 
   11200   0.63775405   -6.9137381   0.39500185 0.0029390017 0.0038316192           25    5.4478617    846.82002    1.0202876 
   11300   0.64654522    -6.878676    0.4020978 0.0029653229 0.0038014315           22     5.714977    845.45965    1.0219293 
   11400   0.65101018   -6.9374569   0.39916939 0.0029179048 0.0037713289           17    5.8776761    838.97031    1.0298338 
   11500   0.63056864   -6.9158227   0.39741692 0.0028798326 0.0037376387           31    5.8534169    841.07922    1.0272516 
   11600   0.66884321   -6.9275087   0.40420211 0.0029037507  0.003704659           45    5.4864847    845.16724    1.0222829 
   11700    0.6429167   -6.9544375    0.4107465 0.0029255448 0.0036770014           96    5.7083498    840.61922    1.0278138 
   11800   0.63459794   -6.9757815   0.42054408 0.0029699439 0.0036532868          125    5.3657098    843.00246     1.024908 
   11900   0.65283776    -6.887218    0.4331186 0.0030330433 0.0036382275           86    5.8938598    842.31846    1.0257403 
   12000   0.65609112   -6.9420615   0.44064883 0.0030600612 0.0036280935          141    5.5568167    843.64128     1.024132 
   12100   0.64084578   -6.9520551   0.43896596 0.0030231814 0.0036178567          127    5.7415183    839.90863    1.0286833 
   12200   0.62539823   -6.9902344   0.44427829 0.0030346877 0.0036060044          126    5.8365827    835.99196    1.0335028 
   12300   0.65383271   -6.9791456   0.44454872 0.0030118476  0.003593177           80    5.6905422    838.66359    1.0302105 
   12400   0.64561297   -6.9610425   0.44721334 0.0030054659 0.0035796643          151    5.7102175    839.50064    1.0291833 
   12500   0.66770867   -6.9585368   0.45206743 0.0030137828 0.0035673375          160     5.370978    844.36237    1.0232573 
   12600   0.66517926   -6.9256786   0.44349026 0.0029331365 0.0035506259          152    5.5285423    844.32852    1.0232984 
   12700   0.65311083   -6.9902417   0.43861094 0.0028780244 0.0035265287          139    5.3855626    841.70644    1.0264861 
   12800   0.63440035   -6.9417053   0.44193268 0.0028771658 0.0035014459          121    6.2026305    834.51262    1.0353348 
   12900   0.68062003   -6.9687486   0.45206574 0.0029203212 0.0034827266          124    5.5644701    841.47735    1.0267656 
   13000   0.66174045   -6.9636773   0.45091846 0.0028905028 0.0034623836          122     5.490828    842.65878     1.025326 
   13100   0.64680415   -6.9875915   0.45786447 0.0029126238 0.0034434591          150    5.8888434    836.15866    1.0332967 
   13200   0.64626544   -6.9181993   0.46146026 0.0029132591 0.0034280247          139    6.1913151    836.74382    1.0325741 
   13300   0.66153423   -6.9884351    0.4776503 0.0029927963 0.0034157391          169     5.292548    843.52779    1.0242698 
   13400   0.61972783   -6.9446611    0.4772527 0.0029679893 0.0034060576          171     5.916513    838.23392    1.0307385 
   13500   0.66607427   -6.9050942   0.47795942 0.0029503667 0.0033952341          186    6.1360587    838.38142    1.0305572 
   13600   0.63888914   -6.9341479   0.47248097 0.0028951039 0.0033821051          187    5.8156341    840.28313    1.0282249 
   13700   0.69048265   -7.0001409    0.4744862  0.002886169 0.0033647003          194    5.0565925    845.76253    1.0215634 
   13800   0.62664492   -6.9404435   0.48258771 0.0029141769 0.0033504412          172    6.0430747    836.72593    1.0325962 
   13900   0.64828631   -6.9632918   0.48192326 0.0028892281 0.0033374525          191    5.8220507    838.12242    1.0308757 
   14000     0.646856   -6.9573045   0.48003877 0.0028573736 0.0033217679          171    5.3095011    845.58944    1.0217725 
   14100   0.64784864   -6.9942357    0.4795441 0.0028341849 0.0033038511          201    5.1805229    843.83902     1.023892 
   14200    0.6268049   -6.9431815   0.48813892 0.0028646649 0.0032874232          201    6.2399068    834.51118    1.0353366 
   14300   0.67041207   -6.9487343   0.50286565 0.0029304524 0.0032764855          196    5.8683147    838.97246    1.0298312 
   14400   0.64847473   -6.9434371   0.50182833  0.002904099 0.0032673218          181    5.9995198    837.45696    1.0316948 
   14500   0.65146917   -6.9844703   0.50353557 0.0028938825  0.003256495          194    5.4036532    842.30322    1.0257589 
   14600   0.66419196   -6.9266961   0.50840361  0.002901847 0.0032459882          180    5.5721271    843.64235    1.0241307 
   14700   0.66768107   -6.9515142   0.51342885 0.0029105943  0.003237056          210    5.8736769     838.7337    1.0301243 
   14800   0.64606053   -6.9546921   0.51512673 0.0029004882 0.0032278415          189    5.4498596    843.37114      1.02446 
   14900   0.66132026   -6.9368285   0.52101842 0.0029139732 0.0032192173          177    5.5845402     843.3204    1.0245216 
   15000     0.644214   -6.9500208   0.52538275  0.002918793 0.0032115784          180    5.9217353    837.61099    1.0315051 
   15100   0.63241478   -6.9435222   0.52664663 0.0029064383  0.003203889          167    5.9853629    837.37917    1.0317907 
   15200   0.64643806   -6.9639491   0.53034056 0.0029075688 0.0031957407          176    5.4222946    843.02695    1.0248783 
   15300    0.6578215   -6.9835946   0.54610834 0.0029744462 0.0031909981          237    5.5706555    839.90923    1.0286826 
   15400   0.64609753   -6.9630345   0.55012166 0.0029768487 0.0031879701          251     6.190018    833.39282     1.036726 
   15500   0.67293892   -6.9961242   0.57150898 0.0030726288 0.0031888781          221    5.0301636    846.40733    1.0207851 
   15600   0.64265907   -6.9189166   0.57548928 0.0030741948 0.0031928257          229    5.8840477    840.11824    1.0284267 
   15700      0.63786   -6.9435036   0.58823992 0.0031222925 0.0031984583          220     5.736266    839.99975    1.0285717 
   15800   0.63961064   -6.9543864   0.59489226 0.0031376173 0.0032056004          249    5.5201385    842.26832    1.0258014 
   15900   0.65430914   -6.9365225   0.58472832 0.0030646137 0.0032109313          253    6.0271182    837.36427     1.031809 
   16000   0.63957435   -7.0085295   0.57813872 0.0030111391  0.003210351          245    5.3610845    841.02067    1.0273231 
   16100   0.65191829   -6.9811992   0.57447321 0.0029734637  0.003207439          257    5.5834469    839.62909    1.0290258 
   16200   0.65140948   -6.9328149   0.57561166 0.0029609652 0.0032031088          241     5.575008    843.23656    1.0246235 
   16300   0.62879569   -6.9589181   0.57063521 0.0029173579 0.0031966928          273    5.8576676    837.26196    1.0319351 
   16400    0.6738675   -6.9916262   0.58093284 0.0029518944 0.0031914916          258    5.7507554    837.27908     1.031914 
   16500   0.69658372   -6.9547423   0.59177244 0.0029887496 0.0031879863          232    5.8590786    839.10729    1.0296657 
   16600   0.67619552   -6.9837635   0.58703325  0.002946954 0.0031855435          263    5.3230536    843.37892    1.0244506 
   16700   0.63833182   -7.0018646   0.58320027 0.0029101809 0.0031784603          250    5.5179652    839.68178    1.0289612 
   16800   0.64586941   -7.0022603   0.58676337 0.0029105325 0.0031714071          246    5.5816782    838.26557    1.0306996 
   16900     0.636146   -7.0052395   0.59815179 0.0029494663 0.0031663659          270    5.7913916    835.75826    1.0337918 
   17000   0.66190547   -6.9714437   0.60751214 0.0029780006 0.0031636386          284    5.7182559    838.75495    1.0300982 
   17100   0.65307118   -7.0028336   0.60748936 0.0029604744 0.0031604328          310    5.2240787    843.13768    1.0247437 
   17200   0.63499722   -6.9722438   0.60616366 0.0029368394 0.0031568637          284    5.9690308    835.60062    1.0339868 
   17300   0.63935157   -6.9993797   0.60838666 0.0029305715 0.0031521644          324    5.6653401    837.09792    1.0321373 
   17400   0.64685681   -6.9557375    0.6049592 0.0028973141 0.0031458348          289    5.7611997    838.86208    1.0299667 
   17500    0.6260213   -7.0021606   0.59388468 0.0028280222 0.0031367998          300    5.6991816    836.77174    1.0325397 
   17600   0.63938956    -7.016772   0.60745156  0.002876191  0.003127593          287    5.3731563    839.90992    1.0286817 
   17700    0.6416085   -7.0045086   0.61502158 0.0028955817 0.0031211698          279    5.3519578    841.02423    1.0273188 
   17800    0.6871988   -6.9506391   0.61708654 0.0028889819 0.0031154919          300    6.1279932    835.33016    1.0343216 
   17900   0.65857927   -6.9842212   0.61965479 0.0028847988 0.0031098747          336    5.9880902    834.10641    1.0358391 
   18000   0.66148605   -7.0151806   0.61648284 0.0028540871 0.0031027493          325    5.3330785    840.82652    1.0275604 
   18100   0.63237824   -7.0066468   0.62200344 0.0028637358 0.0030961161          347    5.6157277    837.47183    1.0316765 
   18200    0.6240986   -7.0221427   0.61983788 0.0028380855 0.0030882151          356    5.8568422    832.98147     1.037238 
   18300   0.65280415   -7.0205591   0.62974425 0.0028676878 0.0030814651          390    5.4128294    839.35865    1.0293574 
   18400   0.65199757   -6.9792352    0.6305152 0.0028555941 0.0030748981          368    5.7085317    837.97305    1.0310594 
   18500   0.64697184   -7.0271968   0.63886565 0.0028777731 0.0030689774          378    5.9142266    832.20862    1.0382012 
   18600   0.65682634   -7.0212558   0.64755094 0.0029012138 0.0030646797          387     5.619319    836.69365     1.032636 
   18700   0.65089549   -6.9794159   0.65856133 0.0029347652 0.0030617997          387    5.6048352    839.33662    1.0293844 
   18800   0.64724682   -7.0395656   0.65032312 0.0028826378 0.0030581064          396    5.5105415    836.46966    1.0329125 
   18900   0.61850608   -7.0121035   0.65510604 0.0028884745 0.0030536407          383    5.7226242    835.42809    1.0342003 
   19000   0.66009065   -7.0436855   0.64952728 0.0028488038 0.0030482414          374    5.5921602    835.75381    1.0337973 
   19100   0.67064805    -7.021654   0.65194144 0.0028444215 0.0030421282          365    5.8845629    833.53072    1.0365545 
   19200   0.67690078   -7.0223662   0.65874858 0.0028591518 0.0030364711          388     5.415684    839.68808    1.0289535 
   19300   0.63533377    -7.023217   0.64959944 0.0028048334 0.0030300309          405    5.7416884    834.61257    1.0352109 
   19400   0.66893707   -7.0756087   0.64753471 0.0027815064 0.0030214054          399    5.5531136    833.56547    1.0365113 
   19500   0.61018739   -7.0091927   0.64516352  0.002757109 0.0030130638          371    6.3704823    827.09681    1.0446177 
   19600   0.65795975   -7.0714814   0.65600386  0.002789132 0.0030042931          375    4.9335541    841.81817    1.0263499 
   19700   0.66066226   -7.0219294   0.65535898  0.002772246 0.0029956308          416    5.7133165    835.26896    1.0343974 
   19800   0.65163904   -7.0573278   0.66024488 0.0027788084 0.0029881092          439    5.7801277    831.96442    1.0385059 
   19900   0.64443675   -7.0424995    0.6634318   0.00277819 0.0029801292          395    5.6631487    834.65891    1.0351534 
   20000   0.65185937   -7.0116981   0.66656828 0.0027773678 0.0029732603          441    5.9856394    832.97891    1.0372411 
   20100   0.65725267     -7.04328   0.66994687 0.0027775574 0.0029657578          439    5.4540818    837.10849    1.0321243 
   20200    0.6744501   -6.9989941   0.68176253 0.0028125516 0.0029596595          415    5.7408695    836.48178    1.0328976 
   20300    0.6549063   -7.0219844   0.69945737 0.0028713356 0.0029563246          387    6.0181825    831.67005    1.0388735 
   20400   0.66329938    -7.051707   0.69747571 0.0028491654 0.0029539003          423    5.7416807     833.1337    1.0370484 
   20500   0.62247834   -7.0651149   0.69153364 0.0028111123 0.0029494556          432    5.5486422    834.21174    1.0357083 
   20600   0.64091301    -7.083385   0.69025763 0.0027923043 0.0029443104          428    5.6416936    832.20172    1.0382098 
   20700   0.67184181   -7.0300717   0.69006356 0.0027780336  0.002938641          400    5.8922736    833.23025    1.0369283 
   20800    0.6499561   -7.0130437   0.68580235 0.0027476055 0.0029320699          395    6.1104912    831.03154    1.0396717 
   20900   0.62502964   -7.0619583   0.69294645 0.0027629443 0.0029252191          418    5.6107543    833.96444    1.0360154 
   21000   0.62179678   -7.0487104   0.68832309 0.0027314408 0.0029183015          450      5.34348    838.04225    1.0309743 
   21100   0.66166917   -7.0588653   0.68835044 0.0027186036 0.0029104263          419    5.6970506     833.4616    1.0366404 
   21200   0.64098183   -7.0599086   0.68353846  0.002686865 0.0029020469          422    5.8549918    831.50006    1.0390859 
   21300   0.62055203   -7.0778504   0.69444567 0.0027169235 0.0028938285          431    5.6248612    832.18219    1.0382342 
   21400   0.64076149   -7.0331613   0.70483129 0.0027446701 0.0028872032          412    5.5505491    836.75017    1.0325663 
   21500   0.66832933   -7.0497434   0.69618392 0.0026983872 0.0028798902          437    5.6066343    834.61444    1.0352085 
   21600   0.63673507    -7.090596   0.69770973 0.0026917813 0.0028715332          460    5.3132107    835.83779    1.0336934 
   21700    0.6793676   -7.0423535   0.69782889 0.0026798344 0.0028632468          463    6.0657118    830.51826    1.0403143 
   21800   0.64574924   -7.0706694   0.70482961 0.0026943027 0.0028559003          459    5.5818875    834.09917    1.0358481 
   21900   0.63109457   -7.1337963   0.71510831 0.0027211122 0.0028492818          452    5.1572178    834.79032    1.0349904 
   22000   0.65749168   -7.0451173    0.7098634 0.0026888764 0.0028422937          470    5.6516943    834.76568     1.035021 
   22100   0.64879414   -7.0697324   0.70859988 0.0026719452 0.0028347463          449    5.7047165    832.57622    1.0377428 
   22200   0.64627829   -7.0762207   0.71327439 0.0026774564 0.0028274416          459    5.6474038    832.36193      1.03801 
   22300   0.63521553   -7.0546978   0.71741351 0.0026809174 0.0028204081          443    5.6125004    833.79107    1.0362308 
   22400   0.65859288   -7.0478328   0.72782883 0.0027076965 0.0028142658          460    5.5220192     836.5181    1.0328527 
   22500    0.6654268   -7.0066102   0.72834082 0.0026975585 0.0028085094          423    5.7613507    835.63931    1.0339389 
   22600   0.66383482    -7.091061   0.71995633 0.0026547062 0.0028018973          436    5.2401853     836.6998    1.0326284 
   22700   0.64075496   -7.1029262   0.72325006  0.002655103 0.0027946174          477    5.5127065    832.57196    1.0377481 
   22800   0.65238571   -7.0795276    0.7250106 0.0026498925 0.0027872359          498    5.5949984    832.57892    1.0377395 
   22900   0.64790897   -7.0415976   0.73419912  0.002671758 0.0027807007          492    5.8071324    832.98427    1.0372345 
   23000   0.63753508   -7.0211948   0.74081883 0.0026841261 0.0027751709          502    5.9242273    832.62361    1.0376838 
   23100   0.65082522    -7.088431   0.74664272 0.0026935162 0.0027703147          484    5.3813529    835.10752    1.0345973 
   23200   0.63317447   -7.0665434   0.74733927 0.0026844082  0.002765128          477    5.8528224    830.24884    1.0406519 
   23300   0.65605897   -7.0735913   0.76407456 0.0027327416 0.0027611878          481    5.5357138    834.05723    1.0359001 
   23400    0.6716395   -7.0399323   0.77053364 0.0027440656 0.0027583226          468     5.548864    836.39058    1.0330102 
   23500   0.66464079    -7.089114   0.77112595 0.0027344891 0.0027556502          477     5.903693    828.26783    1.0431408 
   23600   0.64794337   -7.0737558   0.77479127 0.0027358448 0.0027527026          473    5.9165801    829.51481    1.0415727 
   23700   0.65050522   -7.0680186   0.78084233 0.0027455778  0.002750268          475    5.5896897     833.3632    1.0367628 
   23800   0.63732031   -7.0839442    0.7853116 0.0027496904 0.0027481404          485    5.9712318     828.0131    1.0434618 
   23900   0.62139239   -7.0613256   0.78766338 0.0027463855 0.0027461274          479    5.7068228    832.47335    1.0378711 
   24000   0.62897511   -7.0478023   0.79717827   0.00276798 0.0027443482          488    5.5804054    834.69023    1.0351145 
   24100   0.67213499   -7.0825102   0.79750819 0.0027576354 0.0027427714          513    5.4759191    834.30271    1.0355953 
   24200   0.66534965    -7.048096   0.79530413 0.0027386505 0.0027410404          512    6.2648749    826.73226    1.0450784 
   24300   0.64651295   -7.0776716   0.79219265   0.00271671 0.0027385336          510    6.1776516    825.76956    1.0462967 
   24400   0.63101792   -7.0798641    0.7951356  0.002715627 0.0027352438          496     5.508688    833.46916     1.036631 
   24500     0.661029   -7.0669052   0.77968641 0.0026519945 0.0027313101          524    5.6710839    832.99611    1.0372197 
   24600   0.64350063     -7.09734   0.76945406 0.0026065517 0.0027252626          514    5.3754551     833.9007    1.0360946 
   24700   0.63336001   -7.1152638   0.77412044 0.0026117423 0.0027185669          535    5.3559852     833.0493    1.0371535 
   24800   0.64823922   -7.0601504   0.77788975 0.0026138768  0.002712621          549    5.9904451    829.51692    1.0415701 
   24900   0.67486937   -7.1107362   0.78211331 0.0026175144 0.0027071247          555     5.498192    832.34434    1.0380319 
   25000   0.61162098   -7.0903219   0.77313013 0.0025771004 0.0027005946          549    5.4684108    833.11674    1.0370695 
   25100   0.64239604   -7.0664165    0.7809969 0.0025929512 0.0026940455          538    5.4446399    835.54186    1.0340595 
   25200   0.67169196   -7.0636911   0.78658419 0.0026011381  0.002688201          532    5.6752671    833.10366    1.0370858 
   25300   0.64977581   -7.0781254   0.78326783 0.0025799335 0.0026818768          549    5.7579735    830.87284    1.0398703 
   25400   0.64796192   -7.0709088   0.79556318 0.0026101154 0.0026764054          532    5.8535299    830.13972    1.0407887 
   25500   0.67065593   -7.0779957   0.80238338 0.0026221679 0.0026716456          544    5.8656424    829.87714     1.041118 
   25600   0.66498185   -7.0618376   0.82034059 0.0026703795 0.0026681507          580    5.6700699    833.06615    1.0371325 
   25700   0.62387421   -7.0900356   0.82680744 0.0026809579 0.0026656106          600    5.3882872    833.94027    1.0360454 
   25800   0.62702159    -7.075609   0.81759736 0.0026408183  0.002662694          583    6.1267247    826.13282    1.0458367 
   25900   0.64979853   -7.1403839   0.82166455 0.0026437083 0.0026588228          605    5.3207283    831.72537    1.0388044 
   26000   0.64749287    -7.101228   0.82012674 0.0026286113 0.0026551534          601    5.3917939    833.74079    1.0362933 
   26100   0.63455614    -7.114245     0.813194 0.0025964048 0.0026506866          615    5.9365754     826.1754    1.0457828 
   26200    0.6634435   -7.1201541   0.81560574 0.0025941658 0.0026457258          601    5.7128016    828.67246    1.0426315 
   26300   0.66413825    -7.124614   0.81639653 0.0025868077 0.0026408816          611    5.7603943    827.79702    1.0437341 
   26400   0.62074858   -7.1634114   0.81613887 0.0025761959 0.0026359607          617    5.3970988    829.07887    1.0421204 
   26500   0.64212842   -7.1360146   0.82441806 0.0025925096 0.0026311642          636    5.3602455    831.60887      1.03895 
   26600   0.61787267   -7.0644794   0.82843804 0.0025953572 0.0026270792          640    6.0995279    827.06936    1.0446524 
   26700   0.62716837    -7.161502   0.82580154  0.002577408 0.0026224107          656    5.2782696    830.67849    1.0401136 
   26800    0.6191476    -7.173024   0.83143749 0.0025853155 0.0026176524          665    5.4605639    827.80118    1.0437289 
   26900   0.67948166   -7.1319601   0.82580056 0.0025582421 0.0026132129          653    6.1189423    823.54764    1.0491196 
   27000   0.66020461   -7.1651056   0.83439031 0.0025752787 0.0026082399          651     5.628047    827.03008     1.044702 
   27100   0.65285239    -7.193654   0.83490491 0.0025673582 0.0026038594          649    5.5323998    825.83733    1.0462109 
   27200   0.64046964   -7.1216468    0.8406776 0.0025756053 0.0025993884          632    5.7578304    827.45575    1.0441646 
   27300   0.67271585   -7.1722563   0.83590163 0.0025515922 0.0025948228          638    5.3452181    829.25477    1.0418993 
   27400   0.64518217   -7.1479174     0.846603 0.0025748266 0.0025904026          647    5.6481156    826.97256    1.0447747 
   27500   0.67160292   -7.1257649   0.84444678 0.0025589296 0.0025861991          660    6.4250157    819.78335     1.053937 
   27600   0.67195962   -7.1729026   0.86842079 0.0026220434 0.0025831535          686    5.7544237    824.59447    1.0477878 
   27700   0.67741718   -7.2081058   0.86927564 0.0026151493 0.0025808324          687    5.1765854    828.71977     1.042572 
   27800   0.64798492   -7.1134962   0.86613324 0.0025963226 0.0025782546          717     6.403655    820.87361    1.0525372 
   27900   0.69061429   -7.1590956   0.86854699 0.0025942263 0.0025753658          702     5.301412    831.41582    1.0391912 
   28000   0.65300092   -7.1650251   0.86319687 0.0025690383  0.002571894          723    5.5109026    827.66629     1.043899 
   28100   0.65809808   -7.2083541   0.87503112 0.0025949914 0.0025688883          696    5.4943274    825.08507    1.0471648 
   28200     0.648347   -7.1385736   0.88014977 0.0026009153 0.0025661076          668    6.2778927     820.6311    1.0528482 
   28300   0.65504471   -7.1605224   0.88690865 0.0026116273 0.0025640114          687    5.3281732    830.29176    1.0405981 
   28400   0.62721713   -7.2035556    0.8762151 0.0025710536 0.0025612538          677    5.1984778    829.13128    1.0420545 
   28500   0.63693197   -7.1599612    0.8779784 0.0025671882   0.00255771          696     6.069384    821.62111    1.0515796 
   28600   0.64050146   -7.1538709    0.8779236 0.0025580524 0.0025544647          717    6.0278953    822.14464      1.05091 
   28700   0.66385108   -7.1931419   0.87538209 0.0025417598 0.0025508061          692    5.3469863    827.43907    1.0441857 
   28800   0.64491511   -7.1930527   0.88341478  0.002556177 0.0025471795          697    5.6428159    824.17075    1.0483265 
   28900   0.67057104   -7.1384723   0.88079594 0.0025397806 0.0025438042          699    6.0521858    822.89866     1.049947 
   29000   0.64806252   -7.1714371   0.88970442 0.0025566219 0.0025403069          686    5.6099896    825.78112    1.0462821 
   29100   0.63076679   -7.1959271   0.88537016 0.0025354242 0.0025370765          692    5.6314848    824.42891    1.0479982 
   29200   0.65032333   -7.1998184   0.89050652 0.0025413999 0.0025331696          709    5.7170521    823.24476    1.0495056 
   29300   0.65981767   -7.2166255   0.89975696 0.0025590357 0.0025301002          726    5.5998486    823.40782    1.0492978 
   29400   0.62497898   -7.2153267   0.89980923 0.0025504796 0.0025272971          731    5.7701228    821.49933    1.0517355 
   29500   0.65164067   -7.2036437   0.88972556  0.002513349  0.002523786          723    6.0003105    819.50923    1.0542895 
   29600   0.63871179   -7.1791926   0.88595753 0.0024942498 0.0025196661          743    5.6170454    825.59147    1.0465224 
   29700   0.64936997   -7.2339467   0.88134746 0.0024729165  0.002514819          746    5.2403805    826.53666    1.0453257 
   29800   0.64482833   -7.2672442   0.89393417 0.0024998159 0.0025102113          741    5.5718683    820.08316    1.0535517 
   29900   0.66743432   -7.2072799   0.90176521 0.0025132809 0.0025065474          748    6.1410301    817.62398    1.0567205 
   30000    0.6273773    -7.214142   0.90250755 0.0025069654 0.0025028442          742    5.4255859    825.15238    1.0470793 
   30100   0.61855349   -7.2283506   0.91432871  0.002531364 0.0024994022          750    5.5208261     823.2464    1.0495035 
   30200   0.64562225   -7.2252275   0.92809694 0.0025609739 0.0024969518          763    5.6773504    821.62462    1.0515751 
   30300   0.64963397   -7.1630639   0.91274713 0.0025103056 0.0024942478          735    6.2380472    819.33659    1.0545117 
   30400   0.64022682   -7.2389394   0.90244524 0.0024738082 0.0024903777          750    5.5476542    822.19852    1.0508411 
   30500    0.6365496   -7.2362699   0.89263426 0.0024388914  0.002485755          766    5.9462123    817.68571    1.0566407 
   30600   0.64935264    -7.208328   0.88867242 0.0024201318 0.0024805882          754    5.9481515    820.30198    1.0532707 
   30700   0.65142228   -7.2358394   0.88749148 0.0024090431 0.0024747185          759    5.0768158    828.42809     1.042939 
   30800    0.6447089   -7.2555011   0.89316894 0.0024165826 0.0024696449          759    5.7191269     819.4259    1.0543967 
   30900    0.6566655   -7.2340449   0.90000397 0.0024271951 0.0024645621          758    5.7613866     820.0962    1.0535349 
   31000   0.65402035   -7.2092879   0.91198523 0.0024515732 0.0024600358          752    5.9436028    819.91008    1.0537741 
   31100     0.621753   -7.2268819   0.92002952 0.0024652452 0.0024560868          745    5.6551844    821.50921    1.0517228 
   31200   0.63736457   -7.2459772   0.92381264 0.0024674483  0.002452279          754    5.4830765    822.43283    1.0505417 
   31300   0.63027008   -7.1916255   0.93305964 0.0024841843  0.002448844          768    5.7245684     823.1054    1.0496833 
   31400   0.67775149   -7.2178019    0.9332171 0.0024766908 0.0024458169          791    6.0864416    817.51149    1.0568659 
   31500   0.66068714   -7.2957225   0.94039619 0.0024878206 0.0024427564          818    5.6637307    817.59004    1.0567643 
   31600   0.62751874   -7.2702626   0.93371609 0.0024623314 0.0024396168          823    5.4234154    821.64042    1.0515549 
   31700   0.65439681   -7.2514788   0.93597523 0.0024605027 0.0024359471          814    5.3136484    824.50937    1.0478959 
   31800    0.6472258   -7.2432526   0.93750811 0.0024567822 0.0024326155          812    6.2975223    813.71564     1.061796 
   31900   0.62567779   -7.2605317   0.95198215 0.0024868917 0.0024297632          800    5.4382224    822.17493    1.0508713 
   32000     0.659429    -7.271937   0.95247798 0.0024804114 0.0024270254          806    5.2162452    824.57108    1.0478175 
   32100   0.66750266   -7.2829129   0.94682861 0.0024580182 0.0024240659          823     5.629237     819.0712    1.0548533 
   32200   0.63292832   -7.2799366   0.95602431  0.002474183 0.0024210296          818    5.8138907    816.11475    1.0586747 
   32300    0.6285807   -7.2177254   0.97018032 0.0025030452 0.0024187045          809    5.6209835    822.36764     1.050625 
   32400   0.63855594   -7.2448899   0.98295474 0.0025281757 0.0024169937          799     5.318352    824.74981    1.0475904 
   32500   0.62215879   -7.2726256   0.97292911   0.00249469 0.0024152717          797    5.9574084    815.17248    1.0598984 
   32600   0.68353042   -7.3086748   0.97354444 0.0024886105 0.0024131281          815    5.4971249    819.18604    1.0547055 
   32700   0.67190079   -7.3163847   0.97873802 0.0024942355 0.0024110601          825    5.5166776    818.43343    1.0556754 
   32800   0.63881977    -7.298048    0.9753081 0.0024779169 0.0024089263          827    5.8710934    814.80792    1.0603726 
   32900   0.63841884   -7.3287017   0.97313783 0.0024648881 0.0024064689          836    5.6264872    815.32144    1.0597047 
   33000   0.65276732   -7.2815226   0.96785863 0.0024440874 0.0024035825          837    5.5437153     819.9841     1.053679 
   33100   0.65941584   -7.2905329   0.96895587 0.0024394659 0.0024005816          835    5.5467653    819.46702    1.0543438 
   33200   0.62787165   -7.2789878    0.9688577 0.0024318717 0.0023972913          847    5.8519581    815.90816    1.0589427 
   33300   0.63803335   -7.2847791   0.96688683 0.0024196367 0.0023940466          841    5.6595685    817.80492    1.0564867 
   33400   0.63610317   -7.3336958   0.97309356 0.0024278781 0.0023908372          840    5.3159795     819.0212    1.0549177 
   33500   0.67763667   -7.3170096   0.96946826 0.0024116125 0.0023876046          837    6.2344109    810.14479     1.066476 
   33600   0.68764367   -7.3110101   0.95935458 0.0023793516 0.0023837927          845    5.8951357    814.68159     1.060537 
   33700   0.65497034   -7.2926038   0.96915131 0.0023965166 0.0023800868          837    5.6549711    817.84835    1.0564306 
   33800   0.63013139   -7.3413188   0.96961617 0.0023905724 0.0023764381          833    5.5119039    816.04279     1.058768 
   33900   0.65282317   -7.3316441    0.9790521 0.0024067161 0.0023729891          838    5.5605579    816.39493    1.0583113 
   34000   0.66893092   -7.3166826   0.97703078 0.0023946833 0.0023694706          843    5.7928273    814.61991    1.0606173 
   34100   0.67258055   -7.3082572    0.9809239 0.0023971747 0.0023662353          845    5.7371705    815.72732    1.0591775 
   34200   0.63714488   -7.3028054   0.98866436 0.0024090262 0.0023630711          835    5.7409075    815.84332    1.0590269 
   34300   0.65247208   -7.3397282   0.98142824 0.0023844223 0.0023597028          844    5.9075194    812.11103    1.0638939 
   34400   0.66225503   -7.3282498    1.0022027 0.0024278167 0.0023567881          839    5.3072792    819.26562     1.054603 
   34500   0.64599967   -7.2678204   0.99893016 0.0024128747 0.0023541625          842    5.8577169    816.65145    1.0579789 
   34600   0.66294637    -7.344911   0.98967285 0.0023836051 0.0023510097          843    5.5933284    815.09253    1.0600023 
   34700   0.65558595   -7.3056799   0.99647228  0.002393065 0.0023480172          847    6.0767921    812.31642    1.0636249 
   34800   0.67427525   -7.3068849   0.99490511 0.0023824356 0.0023449531          839    5.5843472    817.73811     1.056573 
   34900   0.66162406   -7.3348271   0.99066913 0.0023654945 0.0023416097          842    5.4739935    817.18386    1.0572896 
   35000   0.64913695   -7.3328663   0.97183667 0.0023138968 0.0023374654          846    5.9390012    811.78425    1.0643222 
   35100   0.68071975   -7.3344504   0.98345752 0.0023348944 0.0023331072          842    5.5181942    816.92034    1.0576307 
   35200   0.65322242   -7.3266145   0.98802142 0.0023390658  0.002329177          847    5.6245384    815.81917    1.0590582 
   35300   0.65862869   -7.3455468   0.97986413 0.0023131825 0.0023250996          850    6.1977837    808.17472    1.0690758 
   35400   0.66340601   -7.3328348   0.98662891 0.0023225727 0.0023207344          847    5.5559556    816.23553     1.058518 
   35500   0.63150096   -7.3025271    0.9951281 0.0023359814 0.0023168141          846    5.2220333    821.62413    1.0515757 
   35600   0.65975163   -7.3601881   0.99763827 0.0023352956 0.0023131778          851    5.4055482    815.87536    1.0589853 
   35700   0.62251752   -7.3193616    1.0008821 0.0023363262 0.0023095523          845    6.2244921    809.00405    1.0679798 
   35800   0.63730657    -7.322161    1.0062516 0.0023422989 0.0023063014          846    5.4430087     817.8268    1.0564584 
   35900   0.63040994   -7.3168251   0.99833263 0.0023173923 0.0023026165          847     5.124488    821.74512    1.0514209 
   36000   0.64157909   -7.3195119   0.99252075 0.0022975017 0.0022984669          847    5.4803632    817.48169    1.0569044 
   36100   0.61634677   -7.3376965    1.0008021 0.0023102541 0.0022944417          851    5.8455437    812.00007    1.0640393 
   36200   0.64929014   -7.3560949    1.0049701 0.0023134669 0.0022906035          847     5.609172    813.73946    1.0617649 
   36300   0.67278001    -7.317713   0.99658728 0.0022878496 0.0022866891          842    6.1092001    810.86721    1.0655259 
   36400   0.64572432   -7.3294243    1.0034199 0.0022972067 0.0022828202          842    5.7076451    814.24081    1.0611111 
   36500   0.64574746   -7.3449712   0.99664133 0.0022754368 0.0022788077          845    5.7762328    812.75116     1.063056 
   36600    0.6762397   -7.3213916   0.99749132 0.0022711551 0.0022746487          841    5.6212857    816.39185    1.0583153 
   36700   0.66763832   -7.3551245    1.0046972 0.0022813288 0.0022705373          845    5.2243722    818.22981    1.0559381 
   36800   0.61303025   -7.3319618    0.9934034 0.0022495548 0.0022662231          852    5.5978888    815.15293    1.0599238 
   36900   0.65831888   -7.2785071   0.97702947 0.0022064803 0.0022610662          854    6.6155043    807.53323     1.069925 
   37000   0.68002661   -7.3259633   0.98985302 0.0022293987 0.0022560899          848    5.2629027    819.93799    1.0537382 
   37100   0.65895711   -7.3269504   0.99513269 0.0022352486 0.0022514561          846     5.131752    821.09432    1.0522543 
   37200   0.66406433   -7.3457917    1.0022802 0.0022452512 0.0022469725          847    5.9225701     811.1198    1.0651941 
   37300   0.63879156   -7.3432523    1.0091856 0.0022546595 0.0022429491          843    5.6643576    814.28262    1.0610567 
   37400   0.65698548   -7.3240964    1.0124756 0.0022559616 0.0022389952          837    5.8422722    813.50252    1.0620741 
   37500   0.68535518   -7.3398152     1.020045 0.0022667665 0.0022352178          844    5.3509305    818.54613      1.05553 
   37600   0.67345372   -7.2838128    1.0141775 0.0022477338 0.0022313294          841    5.8208489    816.56877     1.058086 
   37700   0.64528543   -7.3187837    1.0183428 0.0022509788 0.0022275805          838    5.4589393    817.82588    1.0564596 
   37800   0.62159045   -7.3223327    1.0114112 0.0022297426 0.0022234353          848    5.8060516    813.66152    1.0618666 
   37900   0.60634699   -7.3433553    1.0113856 0.0022238031 0.0022192449          853    5.7017325     813.3899    1.0622212 
   38000   0.65177849   -7.3428738    1.0024225 0.0021982949 0.0022147681          839    5.5892107    815.02561    1.0600894 
   38100   0.66698184   -7.3214436     1.005971 0.0022002866 0.0022102285          845    5.7038378     815.4798     1.059499 
   38200   0.64976894   -7.3552539   0.99475174 0.0021700518 0.0022053332          847    5.6213351    813.94042    1.0615028 
   38300    0.6232459   -7.3535038   0.99204269 0.0021584915  0.002200267          851    5.8265324    811.49923     1.064696 
   38400   0.65242456   -7.3391387   0.98684089 0.0021415818 0.0021949297          844    5.6948793     814.0904    1.0613072 
   38500   0.64064798   -7.3188552   0.98814242 0.0021388364 0.0021894879          844    5.5473094    816.90212    1.0576542 
   38600   0.68916855   -7.3169589   0.99986719 0.0021586079 0.0021843658          851    5.4086101     819.2766    1.0545889 
   38700   0.65112527   -7.3005598   0.99941916 0.0021520654 0.0021793973          844    6.1206154    811.56766    1.0646062 
   38800   0.64484229   -7.3004372    1.0030799 0.0021543811 0.0021746168          845    6.1245265    811.38023    1.0648522 
   38900   0.66214728   -7.3107912    1.0129487 0.0021699844 0.0021699851          838    5.2589253     820.6771    1.0527892 
   39000   0.63066994   -7.3052581    1.0140483 0.0021667699 0.0021655855          840    5.7764393    815.00085    1.0601216 
   39100   0.62801245   -7.3006124    1.0203165 0.0021745876 0.0021612212          843    5.7773021    814.83829    1.0603331 
   39200   0.67552193    -7.338373    1.0241598 0.0021772104 0.0021571864          841    5.5519561    815.67216    1.0592491 
   39300   0.64753595   -7.3127229    1.0267794 0.0021772251 0.0021530726          852     6.015828     811.6262    1.0645295 
   39400   0.63801858   -7.2916145    1.0157358 0.0021483413 0.0021488243          848    5.6886579    816.26902    1.0584746 
   39500   0.67214747   -7.2581368    1.0328003 0.0021789035 0.0021447077          845    5.3978516    822.42744    1.0505486 
   39600    0.6558669   -7.2640508    1.0289335  0.002165264 0.0021408508          844    6.0930142    814.16381    1.0612115 
   39700   0.63902622   -7.3375562    1.0347613 0.0021720431 0.0021368763          847    5.3967555    816.99824    1.0575298 
   39800   0.65694788   -7.3451407    1.0322282 0.0021612817 0.0021330166          845    5.2267872    819.12616    1.0547826 
   39900   0.65039921   -7.3019845    1.0341048 0.0021597844 0.0021290203          842    5.7978744    815.16586     1.059907 
   40000   0.63987261   -7.3277313    1.0365178  0.002159412  0.002125169          848    5.7857259    813.29978    1.0623389 
   40100   0.68476429   -7.2938303    1.0392521 0.0021597093 0.0021214123          834    5.6969351     816.9549    1.0575859 
   40200   0.68377443   -7.3076748    1.0402094 0.0021563213  0.002117609          842    5.5975206    817.25002     1.057204 
   40300   0.61317414   -7.2890374    1.0550182 0.0021815926 0.0021140645          846    5.8138792    815.06803    1.0600342 
   40400   0.65489062   -7.3276697    1.0549013 0.0021759515 0.0021108178          850     5.442358    817.24032    1.0572166 
   40500   0.64277418   -7.2710157     1.059955 0.0021809772 0.0021075389          846    5.6711865    818.60614    1.0554526 
   40600   0.63217313   -7.3033363    1.0574734 0.0021705119 0.0021042398          846     5.471107    818.45359    1.0556493 
   40700   0.62600265    -7.311007    1.0407382 0.0021309136 0.0021005531          844    5.8876291     812.9086    1.0628501 
   40800   0.62940185   -7.3632813    1.0428701 0.0021300451 0.0020965647          848    5.4405429    814.86777    1.0602947 
   40900    0.6411691   -7.2955799    1.0488703 0.0021370625 0.0020927866          848    6.0583107    812.27615    1.0636777 
   41000    0.6500264   -7.3153719    1.0661361 0.0021669433 0.0020893723          840     5.735492    814.78325    1.0604047 
   41100   0.67318262   -7.3079458    1.0639741 0.0021572874 0.0020862944          842    5.3414697    820.04489    1.0536009 
   41200   0.63860901   -7.3427387    1.0551016 0.0021341051 0.0020828717          847    5.1943523    819.13155    1.0547756 
   41300   0.63513782   -7.2814932    1.0560175 0.0021307858 0.0020792115          845    6.2804277    810.57514    1.0659098 
   41400   0.66663156   -7.2902671    1.0727395 0.0021592985  0.002075911          835    5.4747863    819.99149    1.0536695 
   41500   0.65504432   -7.3314894    1.0779871 0.0021646328 0.0020729694          842    5.1954549    820.15454      1.05346 
   41600   0.66344311   -7.3279768    1.0757998 0.0021550477 0.0020700249          848    5.9168278    812.38403    1.0635364 
   41700   0.64115334   -7.2888939    1.0650831 0.0021284633 0.0020668843          843    6.0598498    812.64529    1.0631945 
   41800   0.65834494    -7.335746    1.0575591 0.0021083714 0.0020631462          844     5.249185    819.36311    1.0544775 
   41900   0.65260857   -7.3221764    1.0466867 0.0020817158 0.0020592978          842    5.8103038    813.59484    1.0619536 
   42000   0.63708793   -7.3236984    1.0466494 0.0020766853    0.0020552          846     5.836428    813.09411    1.0626076 
   42100   0.65892405   -7.2840449      1.03853 0.0020556809 0.0020509713          842     5.893082    815.20463    1.0598566 
   42200    0.6487027   -7.3324274    1.0478736 0.0020692606 0.0020466884          842    5.2748892    818.71761    1.0553089 
   42300   0.65819539   -7.3299502    1.0445612 0.0020578431 0.0020424717          840    5.7315692    814.04087    1.0613718 
   42400    0.6142892   -7.3458457    1.0397587  0.002043551 0.0020380812          849    5.7177414    812.76782    1.0630342 
   42500   0.66682323   -7.3655261    1.0367888 0.0020329191 0.0020335401          844    5.2107081    817.84914    1.0564295 
   42600   0.64309604   -7.3006406    1.0390507 0.0020325718 0.0020290456          843    5.8066892    814.81356    1.0603653 
   42700   0.68758847    -7.291934    1.0372978 0.0020243906 0.0020245298          840    5.9980659    813.80566    1.0616785 
   42800   0.65866498   -7.3131158    1.0310457 0.0020074877 0.0020198839          849    5.8567488    813.86329    1.0616034 
   42900   0.64015335   -7.3039863    1.0378033 0.0020159349 0.0020151941          842    6.1135414    811.47172    1.0647321 
   43000   0.62254773   -7.3963334    1.0398555 0.0020152238 0.0020106174          846    5.1359784    816.30002    1.0584344 
   43100   0.63485783    -7.295837    1.0343991 0.0019999982 0.0020059495          844     5.772865    815.43998    1.0595507 
   43200   0.67016843   -7.3020576    1.0383536 0.0020029969 0.0020013303          849    5.7735721    815.60245    1.0593396 
   43300   0.64024475   -7.3351488    1.0370457 0.0019958538 0.0019967655          843    5.7486327    813.64057    1.0618939 
   43400   0.64552263   -7.3602993    1.0342303 0.0019858493 0.0019920554          846    5.5691785    814.11609    1.0612737 
   43500   0.66872529   -7.3126326     1.026202 0.0019659043 0.0019872096          846    5.6799284    815.70722    1.0592036 
   43600   0.62405919   -7.3158424    1.0223489 0.0019540307 0.0019821447          838    5.6181073    816.07736    1.0587232 
   43700   0.66846105   -7.3527679    1.0296251 0.0019634346 0.0019771302          846    5.2683697    818.05722    1.0561608 
   43800   0.68498841   -7.3007066    1.0433988 0.0019851575 0.0019725222          841     5.767069    815.97766    1.0588525 
   43900   0.64735331   -7.3116646    1.0555066 0.0020036191 0.0019683556          836    6.0512671    811.36735    1.0648691 
   44000   0.64733541   -7.3487034    1.0625019 0.0020123142 0.0019644116          841    5.3440045    816.90551    1.0576499 
   44100   0.64732702   -7.3005507     1.068541 0.0020191628 0.0019605812          842    5.6660844    816.86504    1.0577023 
   44200    0.6616329     -7.29498    1.0645884 0.0020071425 0.0019568744          838    5.5812165    818.02915    1.0561971 
   44300   0.66896775   -7.3082043    1.0635734 0.0020007023 0.0019530085          842    5.8465367    814.22202    1.0611356 
   44400   0.63504724   -7.3303535    1.0502637 0.0019712156 0.0019489707          835    5.6256867    814.78217    1.0604061 
   44500   0.66876946   -7.3411435    1.0590238 0.0019831906 0.0019447927          844    5.0685436    821.30452     1.051985 
   44600   0.61799529   -7.2693821    1.0454961  0.001953468 0.0019404499          833      5.75892    817.37404    1.0570436 
   44700   0.64681457   -7.3360495    1.0504445 0.0019583231 0.0019359515          844    5.3355356    818.19977    1.0559768 
   44800   0.60893663   -7.3100418     1.059024 0.0019699107 0.0019318086          844    5.9229543    812.57758    1.0632831 
   44900   0.64482828   -7.3273544    1.0656613  0.001977842 0.0019279006          843    5.5672125    816.12259    1.0586645 
   45000   0.67723348   -7.3224624    1.0444683 0.0019342005 0.0019236727          844    5.6000997    816.21535    1.0585442 
   45100   0.63687676   -7.3253684    1.0458428 0.0019324515 0.0019191547          843    5.8872349    812.09894    1.0639098 
   45200   0.62076617   -7.3234741    1.0468215 0.0019299805 0.0019146653          842    5.4462232    817.31904    1.0571147 
   45300   0.65659295   -7.3039683    1.0393322  0.001911943 0.0019102111          844    5.6549945    816.37127     1.058342 
   45400   0.68485408   -7.3449532    1.0343147 0.0018985218 0.0019053996          845    5.6958305    814.14222    1.0612397 
   45500   0.66124751   -7.2916572    1.0379158 0.0019009446 0.0019007204          839    6.4738114    808.44276    1.0687213 
   45600   0.66800842   -7.3468371    1.0374333 0.0018958942 0.0018962034          841    5.6889697    813.54765    1.0620152 
   45700   0.67072667   -7.3146623    1.0386995 0.0018940544  0.001891437          842    5.2687318    820.89576    1.0525088 
   45800   0.63428307   -7.2854058    1.0332665 0.0018800337 0.0018867714          844    5.8364957    815.59663    1.0593472 
   45900    0.6527075   -7.3282408    1.0236398 0.0018584601 0.0018817505          843    5.9287262    812.12235    1.0638791 
   46000   0.66814913   -7.3106337    1.0143573 0.0018376037 0.0018765055          844     5.744464    815.18829    1.0598778 
   46100   0.65480793   -7.2749765     1.019741 0.0018433495 0.0018712144          846    5.6100421    819.19318    1.0546963 
   46200   0.64481372    -7.306775    1.0135377 0.0018281704 0.0018659187          847    5.6044636    816.54691    1.0581144 
   46300   0.62917414   -7.3120865    1.0309922 0.0018556375 0.0018608036          845    5.7919984    814.24702    1.0611031 
   46400   0.66919741   -7.3011738    1.0482053 0.0018825526 0.0018561866          846    5.2582124    821.40884    1.0518514 
   46500   0.65960406   -7.3144041    1.0527921 0.0018867242 0.0018518872          834    5.5152776    817.83299    1.0564504 
   46600   0.65868578    -7.319057    1.0591642 0.0018940704 0.0018476991          840    6.1604116    810.25567    1.0663301 
   46700   0.66135002   -7.3467744    1.0579117 0.0018877796 0.0018435706          846    5.5101648    815.52854    1.0594356 
   46800   0.66566001   -7.3052842    1.0710908 0.0019072129 0.0018396308          847    5.2867177    820.83224    1.0525902 
   46900   0.62523538   -7.2521157     1.067467 0.0018967074 0.0018358676          844    6.0768724     814.4039    1.0608987 
   47000   0.64746191   -7.3109874    1.0666328  0.001891193 0.0018320815          848    5.8925637    813.29492    1.0623453 
   47100    0.6625108    -7.291246    1.0618662 0.0018787441 0.0018280788          842    6.1104722    812.23983    1.0637252 
   47200    0.6741808   -7.2878866    1.0673037 0.0018843639 0.0018242312          843    5.3891941    820.82024    1.0526056 
   47300   0.65167353   -7.3140485    1.0408777 0.0018338225 0.0018198948          850     5.544929    816.87665    1.0576872 
   47400    0.6326185   -7.3175853    1.0451767 0.0018375118  0.001815367          847    5.9067167    812.44301    1.0634592 
   47500   0.63991301   -7.2623842    1.0465299 0.0018360173 0.0018109542          841    6.1122522    813.70847    1.0618053 
   47600   0.67655071   -7.3225693    1.0426267 0.0018253269 0.0018065298          840    5.4023451    818.43039    1.0556793 
   47700   0.63799456   -7.3097718    1.0297908 0.0017990754 0.0018017479          839    5.7924639    814.48599    1.0607917 
   47800   0.63920637   -7.3146623    1.0434557 0.0018191347 0.0017970629          843    5.5298759    816.98438    1.0575478 
   47900   0.64702405    -7.300257    1.0585412 0.0018415817 0.0017927676          843    5.7383235    815.61894    1.0593182 
   48000   0.61866415   -7.2997291    1.0533887 0.0018287998 0.0017886728          839     6.118934    811.12252    1.0651905 
   48100    0.6510913   -7.2963447    1.0532951 0.0018248356 0.0017844253          847     5.807344    815.17019    1.0599014 
   48200   0.66711929   -7.3304661    1.0587817 0.0018305354  0.001780339          843    5.4994602    816.60678    1.0580368 
   48300   0.63155324   -7.3236341    1.0632739 0.0018344961 0.0017763189          832    5.8311139     812.8716    1.0628985 
   48400   0.67746547   -7.3234363    1.0628808  0.001830029 0.0017723002          848    5.9683416    812.19218    1.0637876 
   48500   0.66160514   -7.3014188    1.0597309 0.0018208435 0.0017683769          838    5.9425217    813.68919    1.0618305 
   48600   0.64670806   -7.3040134    1.0728143 0.0018395307 0.0017644695          840    5.6577715    816.31299    1.0584176 
   48700   0.63001431   -7.3468751    1.0636503 0.0018200723 0.0017605996          830     5.521106    814.98006    1.0601486 
   48800   0.65843647   -7.2831352    1.0615548 0.0018127643 0.0017566446          845    6.1924552    811.71471    1.0644134 
   48900   0.66796151   -7.3334482    1.0702319 0.0018238444 0.0017527625          848    5.3710443    818.12013    1.0560796 
   49000   0.64535727   -7.3400187      1.06288 0.0018076191 0.0017488722          846     5.380111    817.28886    1.0571538 
   49100   0.65777151   -7.3169285    1.0561453 0.0017925074 0.0017447508          845    6.0440669    811.37838    1.0648546 
   49200   0.65165735   -7.3112694    1.0564449 0.0017893714 0.0017406102          837    5.5596717    817.23497    1.0572235 
   49300   0.66384526   -7.2991888    1.0518191 0.0017779228  0.001736428          843    5.6686399    817.24357    1.0572124 
   49400   0.63478902   -7.3307965    1.0465938 0.0017655091   0.00173212          842     5.644033    814.96535    1.0601678 
   49500   0.63933066   -7.3062484    1.0366063 0.0017451284 0.0017275853          828    5.8220473    814.72104    1.0604857 
   49600   0.63355534   -7.2536028    1.0352703 0.0017393653 0.0017229241          835    5.4919976    821.63991    1.0515555 
   49700   0.66526237   -7.3049432    1.0339549 0.0017336602 0.0017182639          832    5.2732186    821.16416    1.0521648 
   49800   0.66718864   -7.2972065    1.0196895 0.0017063077 0.0017135227          843    6.1025112    811.74151    1.0643782 
   49900   0.66255238    -7.339634    1.0213509 0.0017056628 0.0017086255          846    5.9386524    811.23117    1.0650478 
   50000   0.64454077   -7.3502104    1.0273154 0.0017121922 0.0017038068          832    5.3095808    817.28597    1.0571575 
   50100   0.64382838   -7.2969906    1.0300351 0.0017132985  0.001699153          841    5.9747922    812.91432    1.0628426 
   50200   0.66515055   -7.3121298    1.0340829  0.001716605 0.0016944999          836    5.5201662    817.57174     1.056788 
   50300   0.64664089   -7.3091935    1.0469827 0.0017345637 0.0016901164          827    5.2530459    820.56647    1.0529311 
   50400   0.63877392   -7.3099423     1.049838 0.0017358432 0.0016858634          835    5.7631204    814.73332    1.0604697 
   50500   0.65801823   -7.3371283    1.0568476  0.001743973 0.0016817658          836    5.4210593    817.49815    1.0568831 
   50600   0.65437893   -7.3215176      1.07057 0.0017631258 0.0016778928          827    5.5737877    816.21476    1.0585449 
   50700   0.62188103   -7.3001779    1.0673726 0.0017543928  0.001674235          834    6.2851341    809.13771    1.0678034 
   50800   0.64149654   -7.3129055    1.0858092  0.001781183 0.0016706694          834    5.3029994    819.89748    1.0537903 
   50900   0.65160324   -7.3130424    1.0745321 0.0017592208 0.0016671896          835     5.241365       820.57    1.0529266 
   51000   0.63369884   -7.3234254    1.0514221 0.0017180099 0.0016633095          840    5.7467661    813.93477    1.0615101 
   51100   0.65310559   -7.3053041    1.0567768 0.0017233803 0.0016592108          839    5.7441286    815.24462    1.0598046 
   51200   0.65989829   -7.2809871    1.0498223 0.0017086952 0.0016551869          833     5.898994    815.03681    1.0600748 
   51300    0.6378575   -7.3010594    1.0428716 0.0016940733 0.0016509615          840     5.687878    815.86668    1.0589966 
   51400   0.66689156   -7.3194405    1.0322544 0.0016735641 0.0016465259          848    5.6712804    814.94774    1.0601907 
   51500   0.63896491   -7.2808718     1.031824 0.0016696181  0.001642042          851    5.9658027    814.20167    1.0611622 
   51600   0.65228642   -7.2849789    1.0445315 0.0016869049 0.0016376311          851     5.376617    820.83408    1.0525879 
   51700   0.64165972   -7.3170957    1.0519897 0.0016956637 0.0016335133          844    5.3459929    819.05837    1.0548699 
   51800   0.63414054   -7.2971689     1.045746 0.0016823456 0.0016294023          847     5.999334    812.60153    1.0632518 
   51900    0.6707299   -7.3166292    1.0376133 0.0016660458 0.0016251176          847    5.7810833    814.38917    1.0609178 
   52000   0.61789634   -7.2385852    1.0412133  0.001668611 0.0016208394          827    6.0378563    815.78639    1.0591008 
   52100   0.63700172   -7.2870329    1.0386804  0.001661357 0.0016165213          835    5.0809867    823.88042    1.0486959 
   52200   0.63221507   -7.3299514    1.0288577 0.0016424931 0.0016121074          829    5.1938722    819.91593    1.0537666 
   52300   0.67594728   -7.3169978    1.0233517 0.0016305795 0.0016074639          847     5.698636    815.35482    1.0596614 
   52400   0.67809592   -7.3107561    1.0276786 0.0016343489 0.0016029603          842    5.6124197    816.66444    1.0579621 
   52500   0.65630089   -7.3167572    1.0262784 0.0016290134  0.001598536          838    5.9439783    812.42024     1.063489 
   52600   0.65627295   -7.3361739       1.0367 0.0016424272 0.0015941691          841    5.7720124    812.91104    1.0628469 
   52700   0.66551324   -7.3066871    1.0475281 0.0016564328 0.0015900429          843    5.5277066    817.69272    1.0566316 
   52800   0.65715196   -7.3464458    1.0578741 0.0016696245 0.0015861556          850    5.3979596    816.51512    1.0581555 
   52900   0.64045464   -7.2964007    1.0438091 0.0016443117 0.0015821745          846    6.0624852     812.2164    1.0637559 
   53000   0.64544668   -7.2992997     1.053596 0.0016565974 0.0015781756          841    5.3161684    820.48288    1.0530384 
   53100    0.6756826   -7.2773863    1.0525699 0.0016518674 0.0015742636          842    5.5936022    819.13229    1.0547747 
   53200   0.66891687    -7.313395    1.0503973 0.0016453592 0.0015703419          836    5.8387431    814.05369    1.0613551 
   53300    0.6509774   -7.3144898    1.0490857 0.0016402216 0.0015664548          840    6.1179589    810.50205    1.0660059 
   53400   0.67040385   -7.3243913    1.0688547 0.0016680005 0.0015626773          833     5.299908    819.45702    1.0543567 
   53500   0.66971288   -7.3199678    1.0703759 0.0016672522 0.0015592383          844    5.5139733    817.61665      1.05673 
   53600   0.66664186   -7.3355159    1.0625821 0.0016520244 0.0015556662          852    5.6482016    814.58648    1.0606609 
   53700   0.65758257   -7.3164012    1.0527369 0.0016336699 0.0015519094          849    5.6933775    815.22275     1.059833 
   53800   0.66740076   -7.3212193    1.0700711 0.0016574831 0.0015482767          835     5.317115     819.3523    1.0544915 
   53900   0.64269282    -7.313469    1.0607816 0.0016400457 0.0015446973          840    5.8886156    813.29115    1.0623502 
   54000   0.65272397   -7.3079354    1.0555269 0.0016288995 0.0015409688          830     5.794343    814.70187    1.0605106 
   54100   0.64995652   -7.3139396    1.0487422 0.0016154377 0.0015371581          838    5.6249291    816.32914    1.0583966 
   54200   0.62902213   -7.3220448    1.0558013 0.0016233107 0.0015333019          849    5.4948292    816.94484    1.0575989 
   54300    0.6211426   -7.3293676    1.0573345 0.0016226741 0.0015296254          842    5.9289336       811.39    1.0648394 
   54400   0.63684168    -7.297777    1.0599939 0.0016237651 0.0015259262          843    5.7791014    815.32053    1.0597059 
   54500   0.63601663   -7.2884037    1.0612445  0.001622698 0.0015223579          839    5.4122792    820.00891    1.0536471 
   54600   0.66037301   -7.3347913    1.0666062 0.0016279093 0.0015187574          851    5.6580219    814.52824    1.0607367 
   54700   0.65820678   -7.3091974    1.0682341 0.0016274133 0.0015153371          849    6.0326206     811.7911    1.0643132 
   54800   0.63473072   -7.3386751    1.0635458 0.0016173141 0.0015118222          839    5.4883957    815.76319    1.0591309 
   54900   0.65525374   -7.3096545    1.0649988 0.0016165738 0.0015082869          847    5.9560201    812.56065    1.0633052 
   55000   0.64468059   -7.3105905    1.0680858 0.0016183118 0.0015047981          842    5.6338558    816.04593    1.0587639 
   55100   0.65630596   -7.3344146    1.0752237 0.0016261702 0.0015014569          838    5.0525777    821.37323     1.051897 
   55200   0.61990886   -7.2865078    1.0672717 0.0016112194 0.0014979917          844    5.4998062    818.87404    1.0551073 
[...]
   89600   0.67894225    -7.297664    1.0842372 0.0010084052 0.00074043338          841    5.6322315    817.27554     1.057171 
   89700   0.65581702   -7.2811771    1.0889373 0.0010116474 0.00073908515          838    5.8883343    815.01658    1.0601011 
   89800   0.64114043    -7.321194    1.0810565 0.0010032076 0.00073770659          841    5.4506476     817.2137     1.057251 
   89900   0.62991326    -7.360965    1.0943901 0.0010144513 0.00073633947          853    5.5513358    813.46082    1.0621286 
   90000   0.61507811   -7.3298077    1.0957962 0.0010146261 0.00073505133          845    5.7453057    813.00658     1.062722 
   90100    0.6188129   -7.2629678    1.1007794  0.001018109 0.00073378419          841    5.9828803    814.51901    1.0607487 
   90200   0.66316639   -7.3189536     1.113102 0.0010283647 0.00073256973          837    5.3669838    818.48258     1.055612 
   90300    0.6432168   -7.3133064    1.1172263  0.001031032 0.00073139534          843    5.5350119    816.80142    1.0577846 
   90400   0.65782461   -7.3181461    1.1173306 0.0010299876 0.00073026446          848    5.9411571    812.04982    1.0639741 
   90500   0.63833269   -7.3212395    1.1070398 0.0010193737 0.00072909034          843    5.9641395    811.32114    1.0649297 
   90600   0.66768113   -7.3640928    1.1128977 0.0010236366 0.00072790037          842    4.9944607    820.22778    1.0533659 
   90700   0.65444603   -7.3041863    1.1125334 0.0010221733 0.00072671512          844     5.869797    813.59389    1.0619549 
   90800   0.64931474   -7.3282665    1.1166058  0.001024785 0.00072556139          841    5.5333894     815.7343    1.0591684 
   90900   0.63665708   -7.3169063    1.1182133 0.0010251313 0.00072442595          842    5.4799716    817.05756     1.057453 
   91000   0.66316061   -7.2639375    1.1227248 0.0010281363 0.00072332202          853    5.8802119    816.36726    1.0583472 
   91100    0.6615254   -7.2789153    1.1060083 0.0010117163 0.00072218561          844    6.0878974     812.9306    1.0628213 
   91200   0.65948279   -7.3331524    1.0967286 0.0010021277 0.00072095933          847    5.1852044    819.59095    1.0541844 
   91300   0.64227599   -7.2946691    1.0940356 0.00099857207 0.00071966007          850    5.7898904     815.0116    1.0601076 
   91400   0.63696823   -7.3441639    1.1019027 0.0010046523 0.00071842046          840    5.5991208    814.17014    1.0612033 
   91500   0.64122914   -7.3204465    1.1091845 0.0010101863 0.00071721204          841    5.2768364    819.37497    1.0544623 
   91600   0.69012012   -7.2837076    1.1030743 0.0010035246 0.00071604638          842    5.9942292     814.1044    1.0612889 
   91700   0.65287194   -7.2950485    1.1048753  0.001004067 0.00071486969          845    6.0024549    812.90262    1.0628579 
   91800   0.63708041    -7.334571    1.0993577 0.0009979645 0.00071364795          835    5.2433131     818.8438    1.0551463 
   91900   0.66832143   -7.2819532    1.1137202 0.0010099023 0.00071246452          834    5.5964305    818.61484    1.0554414 
   92000   0.63941995   -7.2532683    1.1024268 0.00099857501 0.00071130652          842    6.1087347    814.10658    1.0612861 
   92100   0.64764425   -7.3290581    1.0968337 0.00099243004 0.00071009088          841    5.7070328     814.0193    1.0613999 
   92200   0.67434391   -7.3135834    1.1096833 0.0010029675 0.00070890592          833    5.6249648    816.45527    1.0582331 
   92300   0.68073716    -7.281868    1.1357407 0.0010254069 0.00070784052          840    5.5558861    819.39184    1.0544406 
   92400    0.6622469   -7.3513678    1.1435488 0.0010313391 0.00070687666          842    5.2248874    818.67942    1.0553581 
   92500    0.6544015   -7.3090862    1.1452553 0.0010317616 0.0007059768          846    5.9315271    812.86799    1.0629032 
   92600   0.66081901   -7.2331702    1.1454495 0.0010308221 0.0007050489          845    6.0833543    815.81077    1.0590691 
   92700   0.63361157   -7.3110846    1.1362558 0.0010214454 0.00070410307          846     5.402528    818.38197    1.0557417 
   92800   0.63303987   -7.3350755    1.1348888 0.0010191171 0.00070311817          835    5.2328518     819.0796    1.0548425 
   92900   0.66620519   -7.2881253    1.1334842 0.0010167601 0.00070213368          844    5.8365606    815.58274    1.0593652 
   93000   0.62276146   -7.2459439     1.138182 0.0010198763 0.00070117067          841     5.888732    817.21105    1.0572544 
   93100   0.67446149   -7.3963804    1.1117314 0.00099510512 0.00070010519          844    5.1171777     816.9493    1.0575932 
   93200   0.64716216   -7.3397205    1.1165301 0.00099832806 0.00069899543          838    5.6977771    813.69757    1.0618196 
   93300   0.64545404   -7.3001774    1.1297317 0.0010090494 0.00069796189          838    5.7792004    815.01859    1.0600985 
   93400   0.62209351   -7.3034166    1.1228912 0.0010018658 0.00069694439          836    5.2544188    820.64581    1.0528294 
   93500   0.66183869   -7.2937286    1.1184218 0.00099681085 0.00069586078          842    5.7514496    815.74979    1.0591483 
   93600    0.6496713   -7.3277154    1.1194217 0.0009966361 0.00069479027          838    5.8185776    812.78421    1.0630128 
   93700   0.67145443   -7.3133325    1.1279596 0.0010031657 0.00069375949          840     5.640067    815.88992    1.0589664 
   93800   0.63162546   -7.3097395    1.1287454 0.0010027944 0.00069276926          839    5.7253607    814.66723    1.0605557 
   93900   0.65096196   -7.3254898    1.1278698 0.0010009494 0.00069175935          844     5.806877     812.9658    1.0627753 
   94000   0.65837578   -7.2871175    1.1234679 0.00099598216 0.00069074447          841    5.5147818    819.05531    1.0548738 
   94100   0.65110019   -7.2805749    1.1103497 0.00098330652 0.00068965956          843    5.8645844    815.31283    1.0597159 
   94200   0.63215981   -7.3244623    1.1052767 0.00097777484 0.00068853325          844    5.6007363    815.01964    1.0600972 
   94300   0.65277089   -7.3149256    1.1003782 0.00097240918 0.00068738702          844     5.760357    814.19924    1.0611653 
   94400   0.63156458   -7.2909011    1.0986491 0.00096985265 0.00068621122          842    5.9194693    813.73302    1.0617733 
   94500   0.67603703   -7.2874586    1.1089662 0.00097792437 0.00068507835          846    5.6890991    816.88434    1.0576773 
   94600   0.64064585   -7.2964007    1.0982533 0.00096745353 0.0006839491          843    5.7929116    814.99789    1.0601254 
   94700   0.62081324    -7.313727    1.0895084 0.00095873671 0.00068272455          840    5.5844712    816.13936    1.0586427 
   94800   0.65981847    -7.300173    1.1052315 0.00097154671 0.00068155274          849    5.3551836    819.82216    1.0538871 
   94900   0.63879295   -7.2604359    1.1046368 0.00097000074 0.00068041317          838    5.7526668    817.98469    1.0562545 
   95000   0.66185641   -7.3502841    1.1108552 0.00097443438 0.0006792996          845    5.3220213     817.3682    1.0570512 
   95100   0.64998123   -7.3209428     1.115394 0.00097738692 0.00067825147          842    5.8969153    812.46366    1.0634322 
   95200   0.67055288    -7.289264    1.1009533 0.00096371962 0.00067713543          842    5.9221984    814.11406    1.0612764 
   95300   0.63834636   -7.3351894    1.1039538 0.00096533211 0.00067600157          848     5.339172    817.57777    1.0567802 
   95400   0.64439934   -7.3085379    1.1140255 0.00097311799 0.00067492248          847    5.7589926    814.36575    1.0609483 
   95500    0.6383596   -7.3278944    1.1084641 0.0009672462 0.0006738628          844    5.4097112    817.37077    1.0570478 
   95600    0.6262682   -7.3733186    1.1055607 0.00096370356 0.00067275238          846    5.5673178    812.78568    1.0630109 
   95700   0.64420587   -7.3221881    1.1137948 0.0009698666 0.00067168475          839    5.6781885    814.63707     1.060595 
   95800   0.62750653   -7.2546891    1.1155887 0.00097041468 0.00067063623          838    5.6834418    818.80517    1.0551961 
   95900   0.62656434   -7.2760912    1.1067448 0.00096171779 0.00066955763          846    5.9333983    814.58638     1.060661 
   96000   0.62085099   -7.2825156    1.1145576 0.00096749791 0.00066847806          852    5.9616243    813.77147    1.0617231 
   96100   0.66269212   -7.3118576    1.1166069 0.00096826824 0.00066745781          836    5.2672649    820.26252    1.0533213 
   96200    0.6512835   -7.2719447    1.1081574 0.00095994232 0.00066638407          843    5.6928363    817.80088    1.0564919 
   96300   0.66680091   -7.3562645    1.1052805 0.00095645591 0.00066529706          846    5.8289979    811.33984    1.0649052 
   96400   0.64097211   -7.3293253     1.108766 0.00095847683 0.00066423115          847    5.4308799    817.07534      1.05743 
   96500   0.67734292   -7.3315479    1.0902523 0.00094149593 0.00066310103          851    5.4470801    816.96391    1.0575743 
   96600   0.64906135   -7.3285973    1.0721628 0.00092491611 0.00066188449          849    5.7952332    813.21582    1.0624486 
   96700   0.67628855   -7.3140964    1.0738542 0.00092541726 0.00066060718          850    5.8022697    814.02288    1.0613952 
   96800   0.67884625   -7.3101017    1.0734385 0.00092410341 0.00065937701          852    5.8442307    814.08432    1.0613151 
   96900   0.63581235   -7.3488098     1.074691 0.00092422683 0.00065811356          848    5.3834353    816.21836    1.0585403 
   97000   0.64662868   -7.2986038     1.089318 0.00093584021 0.00065691046          844    5.6670298    816.60447    1.0580398 
   97100   0.65538923   -7.2880575    1.0948893 0.00093965781 0.00065577344          839    5.8268406    815.27449    1.0597658 
   97200   0.63371001   -7.2635131    1.0876907 0.00093251944 0.00065464232          847    6.3827535    810.63865    1.0658263 
   97300   0.63496374   -7.3658658    1.0778549 0.00092313715 0.00065346055          846    5.4039546     814.9487    1.0601894 
   97400   0.64260098   -7.3345098    1.0742476 0.00091910303 0.00065223296          851    5.7411353    813.23036    1.0624296 
   97500   0.63145542   -7.2866462     1.090689 0.00093221285 0.00065105427          850    5.5329664    818.49397    1.0555973 
   97600   0.65288878   -7.2820508    1.0929023 0.00093314744 0.00064992419          838    5.6140486    818.25906    1.0559003 
   97700    0.6413711   -7.3564016      1.08989 0.00092962296 0.00064876942          848    5.3821656    815.89083    1.0589652 
   97800   0.64172336   -7.3057276    1.0964586 0.00093426939 0.00064764438          843     5.820132     814.0112    1.0614105 
   97900   0.67807436   -7.2879118    1.0834818 0.00092226918 0.00064653553          857    5.9598229    814.12781    1.0612584 
   98000   0.64179895   -7.3315965    1.0827736 0.00092072586 0.00064536647          850     5.505667    816.03788    1.0587744 
   98100   0.66010998   -7.3192487    1.0814801 0.00091868845 0.00064419932          841     5.490926    817.18665     1.057286 
   98200    0.6775939   -7.2757996    1.0938227 0.00092822702 0.00064306448          843     5.836224    816.32957    1.0583961 
   98300   0.66581462   -7.3374029    1.0987069 0.00093142326 0.00064198064          848    5.5857446    815.32611    1.0596987 
   98400   0.63282602   -7.3157787    1.1072624 0.00093772218 0.00064092871          842    5.6254407    815.85085    1.0590171 
   98500   0.66946663   -7.2840657    1.1118023 0.00094061105 0.00063992186          843     5.592626    818.37218    1.0557544 
   98600    0.6621323   -7.3138543    1.1074385 0.00093596899 0.00063894488          842    5.8462287    813.79515    1.0616922 
   98700   0.64518574   -7.3292148    1.0984789 0.00092745603 0.00063788689          847     5.615861    814.72086    1.0604859 
   98800   0.64131008   -7.3330414    1.0977199 0.00092587714 0.0006368245          842    5.6306195    814.63268    1.0606007 
   98900   0.66750665   -7.2899757    1.0926825 0.00092069641 0.00063576262          852    5.9761357    813.94797    1.0614929 
   99000   0.62518202   -7.3249427    1.0884638 0.00091621529 0.00063465608          850    5.3468555    818.25738    1.0559025 
   99100   0.62999211   -7.3054851    1.0900845 0.00091665364 0.00063354269          840    5.6079897    816.00869    1.0588123 
   99200    0.6715001    -7.312727    1.0950836 0.00091992911 0.00063246151          848    5.8317577     813.8004    1.0616854 
   99300   0.66916325   -7.3150642    1.0855281 0.00091098362 0.00063137872          847    5.8379271     813.7251    1.0617836 
   99400   0.65976623   -7.3414602    1.0927167 0.00091609383 0.00063027676          846    4.8269532     823.6824     1.048948 
   99500   0.62305414   -7.2974489    1.0814354 0.00090572482 0.00062917282          847    6.0824427       812.07    1.0639477 
   99600   0.63053033   -7.2875036    1.0760475 0.00090030748 0.00062801215          852    5.8391479    814.94408    1.0601954 
   99700   0.64579922   -7.2808252    1.0798259 0.00090256263 0.00062684182          844    5.4230407    820.58554    1.0529067 
   99800   0.64650589   -7.2991147    1.0787307 0.00090074371 0.00062572041          842    5.7785258    815.00043    1.0601221 
   99900   0.65884302   -7.2945451     1.074308 0.00089615281 0.00062456275          850    6.2113631    810.53546     1.065962 
  100000   0.64792847   -7.3585807    1.0670365 0.00088919711 0.00062337979          853    5.2992253    816.66811    1.0579573 
  100100   0.63516228   -7.2989065    1.0679559 0.00088907414 0.00062217636          855    5.5013528    817.97023    1.0562732 
  100200   0.66133876   -7.3048739    1.0734087 0.00089272182 0.00062100065          849    5.4477118    818.58897    1.0554748 
  100300   0.64035207   -7.2849656      1.08541 0.00090180291 0.00061989245          850    5.7189369    816.80267     1.057783 
  100400   0.63584416   -7.2827061    1.0821774 0.00089822158 0.00061878158          848    5.9135946    814.51617    1.0607524 
  100500   0.62769832   -7.3192303    1.0945066 0.00090755109 0.00061771016          849    5.4259278    817.49803    1.0568833 
  100600   0.65875354   -7.2806649    1.1053352 0.00091561895 0.00061670992          854    5.5324537    819.32506    1.0545265 
  100700    0.6566647   -7.2730899    1.1024563 0.00091232725 0.00061572719          848    5.8614107    815.82062    1.0590563 
  100800   0.66491136   -7.3307849    1.1001477 0.00090951364 0.0006147443          855    5.6824131    814.55613    1.0607004 
  100900   0.64991242   -7.2845913    1.1157382 0.00092148842 0.00061379541          855    6.1425515    811.89626    1.0641754 
  101000   0.65430952   -7.3503739    1.1219791 0.00092572534 0.00061291395          848    5.2812042    817.69539    1.0566282 
  101100   0.66105549   -7.3063463    1.1205615 0.00092364119 0.00061204704          848    5.9439615    812.77591    1.0630236 
  101200    0.6732513    -7.277471     1.109416 0.0009135507 0.00061114496          851    6.1632056     812.2644    1.0636931 
  101300    0.6551599   -7.3125431    1.1083049 0.00091173486 0.00061020286          847    5.7117262    814.97014    1.0601615 
  101400   0.65138782   -7.3070728     1.105547 0.00090856922 0.00060925068          841    5.6627601    816.03478    1.0587784 
  101500    0.6762338   -7.3311903    1.1033034 0.00090583199 0.00060828136          843    5.3250978    818.44696    1.0556579 
  101600   0.63881464   -7.3157759    1.0875681 0.00089203419 0.00060727748          836    5.8930644    812.82141    1.0629641 
  101700   0.64940112   -7.3116732    1.0831298 0.00088752028 0.00060620767          849    5.7312569    815.02672    1.0600879 
  101800   0.64808418   -7.2625738    1.0912066 0.00089326016 0.00060516691          843    5.6585298    818.49002    1.0556024 
  101900   0.65815366   -7.2587475     1.101421 0.00090073679 0.00060418522          845    5.7331819    818.30861    1.0558364 
  102000   0.62612596   -7.2718423    1.0942897 0.00089402753 0.00060319781          843    5.9340567    814.36688    1.0609469 
  102100   0.63502469   -7.3271846    1.1063735 0.00090301462 0.00060223483          845     5.610063    814.91212     1.060237 
  102200   0.63480113   -7.3343396    1.1043505 0.00090048149 0.00060129009          846     5.535636    815.48263    1.0594953 
  102300   0.67847052   -7.3115145     1.101272 0.00089709349 0.0006003305          844    5.7265366    815.21471    1.0598435 
  102400   0.64978804   -7.2617705    1.1156628 0.00090792873 0.00059941707          845    6.3384339     811.0807    1.0652454 
  102500    0.6516911   -7.2926049    1.1310986 0.00091959239 0.00059859858          845    5.7240579    815.99874    1.0588252 
  102600   0.68084617   -7.3017347    1.1304721 0.00091818718 0.00059779773          849    5.4093034    819.54912    1.0542382 
  102700   0.66972308   -7.3280899    1.1132973 0.00090335709 0.00059694871          847     6.002055    811.22003    1.0650625 
  102800   0.65015946   -7.3286526    1.0985322 0.00089050922 0.00059601266          853     5.688731    814.12527    1.0612617 
  102900    0.6553792   -7.3039908    1.0958873 0.00088750189 0.00059502183          848    5.4293185    818.50172    1.0555873 
  103000   0.64748749   -7.3333909    1.0970839 0.00088760835 0.00059404323          848    5.4626148    817.03509    1.0574821 
  103100   0.66316527   -7.2818772    1.1092313 0.00089656588 0.00059313196          848     6.105243    812.73104    1.0630823 
  103200     0.668571   -7.2995414    1.1086982 0.00089526662 0.00059223164          847    5.4818235    818.45489    1.0556477 
  103300   0.60992299   -7.3001228    1.1020575 0.00088904287 0.00059129896          853    5.7115816    815.23063    1.0598228 
  103400   0.63443746   -7.3142612    1.1153629 0.00089890628 0.0005903977          854    5.1550357    820.96925    1.0524146 
  103500   0.66555264   -7.2596067    1.1192706 0.00090118408 0.00058953251          846     6.139223    813.40864    1.0621967 
  103600   0.68008747   -7.3293249    1.1264668 0.0009061026 0.00058873234          848    5.8416962    812.55641    1.0633108 
  103700   0.67384549   -7.3601008    1.1202768 0.0009002546  0.000587898          847    5.4358871    815.20807    1.0598521 
  103800   0.65984333   -7.2699251    1.1166236 0.00089645441 0.00058706012          851    5.9878205    814.62725    1.0606078 
  103900   0.65659826   -7.2733321    1.1246568 0.00090203462 0.00058625234          852    5.9131858    815.14943    1.0599284 
  104000   0.65524908     -7.33069    1.1132772 0.00089204902 0.00058539855          852     5.533718    815.74005    1.0591609 
Loop time of 194.033 on 12 procs for 100000 steps with 864 atoms

Performance: 89057.057 tau/day, 515.376 timesteps/s
99.4% CPU use with 12 MPI tasks x no OpenMP threads

MPI task timing breakdown:
Section |  min time  |  avg time  |  max time  |%varavg| %total
---------------------------------------------------------------
Pair    | 10.12      | 11.223     | 11.935     |  18.6 |  5.78
Neigh   | 1.0028     | 1.0368     | 1.0775     |   2.4 |  0.53
Comm    | 7.1147     | 8.0617     | 9.134      |  23.2 |  4.15
Output  | 2.4917     | 2.4927     | 2.5001     |   0.1 |  1.28
Modify  | 169.01     | 169.34     | 169.85     |   2.0 | 87.28
Other   |            | 1.876      |            |       |  0.97

Nlocal:        72.0000 ave          75 max          69 min
Histogram: 2 2 0 1 0 2 2 0 0 3
Nghost:        1644.75 ave        1654 max        1638 min
Histogram: 1 2 2 2 0 1 2 1 0 1
Neighs:        8937.58 ave       10010 max        7922 min
Histogram: 1 1 2 1 0 2 3 0 1 1
FullNghs:      17872.4 ave       18660 max       17098 min
Histogram: 2 2 0 1 0 3 1 0 0 3

Total # of neighbors = 214469
Ave neighs/atom = 248.22801
Neighbor list builds = 4467
Dangerous builds = 0

#clear
#
#next RN
#
#jump SELF



Total wall time: 0:03:14
