
units lj                  # Use reduced LJ style units
atom_style atomic         # Uncharged point particles
atom_modify map hash      # Needed for indexing of clusters etc
                          # Used to be able to find where atoms are in relation to each other.

# Define a lattice with which to populate the simulation cell. With units
# set to 'lj' the second argument to the lattice command is the reduced
# density rho* and the spacings are multiples of that required to acheive
# that density. Also define a simulation cell called 'box' in lattice units
# and fill it with atoms. Here we're creating a box which is ten lattice
# constants in each direction.
lattice fcc 1.0 spacing 1 1 1                 # All equal sizes - gives the right reduced density.
Lattice spacing in x,y,z = 1.5874011 1.5874011 1.5874011

region box block 0 6 0 6 0 6 units lattice # Defines a region, "box", in lattice units
create_box 1 box                              # Creates a simulation box as specified above,
Created orthogonal box = (0.0000000 0.0000000 0.0000000) to (9.5244063 9.5244063 9.5244063)
  2 by 2 by 3 MPI processor grid
                                              # with one type of atom
create_atoms 1 box                            # Creates particles on lattice points
Created 864 atoms
  using lattice units in orthogonal box = (0.0000000 0.0000000 0.0000000) to (9.5244063 9.5244063 9.5244063)
  create_atoms CPU = 0.001 seconds


# Set the mass of the first (and only) atom type.
mass 1 1.0

# Lennard-Jones interactions between particles, 3.5 sigma cut-off. Apply
# long range tail corrections to energy and pressure and set all coefficients
# to unity since we work in reduced units here. Note that this doesn't shift
# the potential such that it goes to zero at the cutoff. That would require
# pair_modify('shift', 'yes').
pair_style lj/cut  3.5      # non-GPU version
pair_modify tail  yes
pair_coeff 1  1  1.0  1.0   # Intearaction between 1 and 1 set with epsilon = 1 and sigma = 1

write_data data.*
System init for write_data ...
Neighbor list info ...
  update every 1 steps, delay 10 steps, check yes
  max neighbors/atom: 2000, page size: 100000
  master list distance cutoff = 3.8
  ghost atom cutoff = 3.8
  binsize = 1.9, bins = 6 6 6
  1 neighbor lists, perpetual/occasional/extra = 1 0 0
  (1) pair lj/cut, perpetual
      attributes: half, newton on
      pair build: half/bin/atomonly/newton
      stencil: half/bin/3d
      bin: standard

#############################
#   M E L T   S Y S T E M   #
#############################

velocity all create 2.4 2750902 mom yes dist gaussian # Assign velocities
                                                    # Temperature 2.4, random number seed, zero linear momentum
						                                                        # Gaussian distribution

timestep 0.002   # simulation timestep
thermo 100       # output thermodynamic data every 100 steps

# Define a fix  in this case with index 1 applied to all
# particles in the simulation. This fix is for simulations
# in the anisotropic NPT ensemble. Note that we use the MTK
# correction.
fix 1 all npt temp 2.4 2.4 0.1 iso 5.68 5.68 0.5 mtk yes tchain 5 pchain 5 # Use NPT ensemble
                                                                         # Set temperature and pressure and damping
                                                                         # Numbers of thermostats in chain and in barostat
run 1000         # run for 10000 steps
Per MPI rank memory allocation (min/avg/max) = 3.633 | 3.633 | 3.634 Mbytes
Step Temp E_pair E_mol TotEng Press Volume 
       0          2.4   -8.3859253            0    -4.790092     -2.24275          864 
     100    1.3007594   -6.4407842            0   -4.4919034    5.3582762    891.69205 
     200    1.5828213   -6.0796178            0   -3.7081338    6.4338598    907.46239 
     300    1.7629056     -5.73851            0   -3.0972122    5.5953229    954.02439 
     400    1.8733232   -5.2785237            0   -2.4717912    6.0585808    994.36537 
     500      2.02574   -4.9360708            0   -1.9009777    5.7478153    1042.8978 
     600    2.2112838   -4.6895875            0   -1.3765009    5.7138268    1079.0368 
     700    2.3146746   -4.4629638            0  -0.99497044    5.6088298    1118.0222 
     800    2.4734008     -4.39503            0   -0.6892229    5.7937797    1123.7282 
     900    2.4206618   -4.2767239            0  -0.64993368    5.5531987    1146.9555 
    1000    2.3618098   -4.2459295            0  -0.70731524    5.7000582    1143.3852 
Loop time of 0.18856 on 12 procs for 1000 steps with 864 atoms

Performance: 916420.521 tau/day, 5303.359 timesteps/s
99.4% CPU use with 12 MPI tasks x no OpenMP threads

MPI task timing breakdown:
Section |  min time  |  avg time  |  max time  |%varavg| %total
---------------------------------------------------------------
Pair    | 0.065966   | 0.07721    | 0.095376   |   3.4 | 40.95
Neigh   | 0.011647   | 0.012985   | 0.01476    |   0.9 |  6.89
Comm    | 0.060492   | 0.080381   | 0.092873   |   3.7 | 42.63
Output  | 0.00019361 | 0.00019967 | 0.0002287  |   0.0 |  0.11
Modify  | 0.015644   | 0.016177   | 0.016456   |   0.2 |  8.58
Other   |            | 0.001607   |            |       |  0.85

Nlocal:        72.0000 ave          80 max          66 min
Histogram: 2 1 2 2 1 0 2 0 0 2
Nghost:        1314.75 ave        1327 max        1295 min
Histogram: 1 0 0 2 3 0 0 1 2 3
Neighs:        6211.67 ave        7136 max        5326 min
Histogram: 2 0 0 2 1 4 1 0 0 2

Total # of neighbors = 74540
Ave neighs/atom = 86.273148
Neighbor list builds = 80
Dangerous builds = 2

# Equilibrate just above the melting temperature to avoid step fn in T

fix 1 all npt temp 1.25 1.25 0.1 iso 5.68 5.68 0.5 mtk yes tchain 5 pchain 5
run 1000
Per MPI rank memory allocation (min/avg/max) = 3.634 | 3.634 | 3.634 Mbytes
Step Temp E_pair E_mol TotEng Press Volume 
    1000    2.3618098   -4.2459295            0  -0.70731524    5.7000582    1143.3852 
    1100    1.8617945   -4.5967525            0    -1.807293    5.9593679    1083.5566 
    1200      1.66126   -5.0091582            0   -2.5201524    5.9308167    1028.0056 
    1300    1.4533368   -5.3154554            0   -3.1379734    5.5185254    997.93023 
    1400    1.3100587   -5.5224566            0    -3.559643    5.2858775     978.0358 
    1500    1.3306301   -5.7450087            0   -3.7513736    5.2687861    956.68836 
    1600    1.2302857    -5.777427            0   -3.9341343     5.385203    950.58576 
    1700    1.2545134   -5.8251615            0   -3.9455694    5.6370291    940.07281 
    1800    1.2669685   -5.8434457            0   -3.9451925    6.1076728    931.13358 
    1900    1.2975362   -5.8185374            0   -3.8744858    5.5765884    942.23221 
    2000    1.2225624   -5.8503078            0   -4.0185867    5.1330896    948.19804 
Loop time of 0.17216 on 12 procs for 1000 steps with 864 atoms

Performance: 1003715.343 tau/day, 5808.538 timesteps/s
99.8% CPU use with 12 MPI tasks x no OpenMP threads

MPI task timing breakdown:
Section |  min time  |  avg time  |  max time  |%varavg| %total
---------------------------------------------------------------
Pair    | 0.06948    | 0.077385   | 0.088277   |   1.9 | 44.95
Neigh   | 0.0098118  | 0.01076    | 0.012106   |   0.6 |  6.25
Comm    | 0.054551   | 0.066714   | 0.075159   |   2.3 | 38.75
Output  | 0.00020067 | 0.00020742 | 0.00024424 |   0.0 |  0.12
Modify  | 0.014824   | 0.015216   | 0.015586   |   0.2 |  8.84
Other   |            | 0.001877   |            |       |  1.09

Nlocal:        72.0000 ave          79 max          65 min
Histogram: 1 1 0 4 0 1 1 3 0 1
Nghost:        1466.08 ave        1476 max        1447 min
Histogram: 1 1 0 0 2 0 0 4 1 3
Neighs:        7466.67 ave        8131 max        6694 min
Histogram: 1 0 2 0 3 1 3 0 0 2

Total # of neighbors = 89600
Ave neighs/atom = 103.70370
Neighbor list builds = 67
Dangerous builds = 0


# Small amount of linear quench

fix 1 all npt temp 1.25 ${temp} 0.1 iso 5.68 5.68 0.5 mtk yes tchain 5 pchain 5
fix 1 all npt temp 1.25 0.57 0.1 iso 5.68 5.68 0.5 mtk yes tchain 5 pchain 5
run 2000
Per MPI rank memory allocation (min/avg/max) = 3.634 | 3.634 | 3.634 Mbytes
Step Temp E_pair E_mol TotEng Press Volume 
    2000    1.2225624   -5.8503078            0   -4.0185867    5.1330896    948.19804 
    2100    1.2347637   -5.8710596            0   -4.0210577    5.3879535    940.82129 
    2200    1.2050986   -5.9226817            0    -4.117126    5.7194579    929.17539 
    2300    1.1760829   -5.9379492            0   -4.1758667    6.3267461    917.22077 
    2400    1.1538473   -5.9980659            0   -4.2692981    5.8489646    919.96586 
    2500    1.0707398   -6.0263927            0   -4.4221419    5.9558991    913.44082 
    2600    1.0564482   -6.1068727            0   -4.5240346    5.7169584    910.58083 
    2700    1.0630894   -6.1994187            0   -4.6066302    5.4583208    907.79285 
    2800   0.96764553   -6.1782692            0   -4.7284808    5.8270553    902.40892 
    2900   0.95048342   -6.2441538            0   -4.8200788    5.8113331    895.77873 
    3000   0.92315409   -6.2841699            0   -4.9010415    5.9573976    890.80754 
    3100   0.89003054   -6.3399644            0   -5.0064638    5.9032007    886.85479 
    3200   0.84363191   -6.4316097            0   -5.1676265    5.6616301    882.49642 
    3300   0.82945001   -6.4712767            0   -5.2285417    5.9085634    875.66965 
    3400   0.79667963   -6.4976249            0   -5.3039885    6.1001273    871.01257 
    3500   0.77412248   -6.5831811            0   -5.4233413    5.9492929    866.09659 
    3600    0.7629752    -6.661611            0   -5.5184729    5.7833562    862.24835 
    3700   0.71051157   -6.7197367            0   -5.6552029    5.5803599    860.29533 
    3800   0.65130661   -6.7616031            0    -5.785774    5.3273156    859.93354 
    3900   0.62641555   -6.8127854            0   -5.8742496    5.2656741    855.79034 
    4000      0.60279   -6.8791633            0   -5.9760248    5.4044907    849.69303 
Loop time of 0.35999 on 12 procs for 2000 steps with 864 atoms

Performance: 960025.520 tau/day, 5555.703 timesteps/s
99.8% CPU use with 12 MPI tasks x no OpenMP threads

MPI task timing breakdown:
Section |  min time  |  avg time  |  max time  |%varavg| %total
---------------------------------------------------------------
Pair    | 0.15032    | 0.17066    | 0.20058    |   3.1 | 47.41
Neigh   | 0.016472   | 0.017769   | 0.02053    |   0.8 |  4.94
Comm    | 0.10381    | 0.13637    | 0.15771    |   3.7 | 37.88
Output  | 0.00037673 | 0.00038776 | 0.00046215 |   0.0 |  0.11
Modify  | 0.029393   | 0.030199   | 0.030884   |   0.2 |  8.39
Other   |            | 0.004604   |            |       |  1.28

Nlocal:        72.0000 ave          76 max          68 min
Histogram: 1 1 3 0 0 3 0 0 3 1
Nghost:        1599.83 ave        1618 max        1569 min
Histogram: 1 0 1 2 0 1 1 0 5 1
Neighs:        8466.75 ave        9576 max        7773 min
Histogram: 1 1 3 3 1 1 1 0 0 1

Total # of neighbors = 101601
Ave neighs/atom = 117.59375
Neighbor list builds = 106
Dangerous builds = 0

#############################
# F R E E Z E  S Y S T E M  #
#############################

# Define solid atoms. This closely follows ten Wolde  Ruiz-Montero and Frenkel  Faraday Discuss  1996  104  93-110
# Compute components of the per-atom q6 vector
compute q6 all orientorder/atom degrees 1 6 components 6 nnn NULL cutoff 1.3 # compute the Q6 parameter.
                                                                             # Use all neighbours within 1.3 unit cell.

# get number of connections
compute coord_number all coord/atom orientorder q6 0.5

# An atom is solid if it has 8 or more connections (of a possible 14)
variable is_solid atom c_coord_number>=8
group solid dynamic all var is_solid    # Must be dynamic to update
dynamic group solid defined

# do clustering
compute cluster solid cluster/atom 1.3 # Create a cluster where all atoms within are solid and max 1.3 units from another member

# define chunks one chunk per cluster
compute clus_chunks solid chunk/atom c_cluster nchunk every compress yes  # Says which atoms are in which chunk

# count the size of each chunk
compute size_chunks solid property/chunk clus_chunks count


# Find the maximum entry in the vector of chunk sizes
variable max_n equal max(c_size_chunks)


# Thermo style which includes this variable
# thermo_style custom step temp pe vol v_max_n

thermo ${N}  # Print the thermo information every 100 steps
thermo 100  

# Reset the npt fix at a lower temperature (below freezing)

compute myRDF all rdf 100
fix 2 all ave/time 1 50 100 c_myRDF[*] file pcf.rdf mode vector


compute msd all msd com yes
variable twopoint equal c_msd[4]/6/(step*dt+1.0e-6)
fix 9 all vector 10 c_msd[4]
variable fit equal slope(f_9)/6/(10*dt)
thermo_style custom step temp pe c_msd[4] v_twopoint v_fit v_max_n press vol density


fix 1  all npt temp  ${temp} ${temp}  0.1  iso  5.68  5.68  0.5  mtk yes tchain  5  pchain  5
fix 1  all npt temp  0.57 ${temp}  0.1  iso  5.68  5.68  0.5  mtk yes tchain  5  pchain  5
fix 1  all npt temp  0.57 0.57  0.1  iso  5.68  5.68  0.5  mtk yes tchain  5  pchain  5

dump dmp2 all dcd ${N} traj.dcd
dump dmp2 all dcd 100 traj.dcd
dump dmp3 all dcd ${N} traj_unwrap.dcd
dump dmp3 all dcd 100 traj_unwrap.dcd
dump_modify dmp3 unwrap yes


# fix rnuntil all halt ${N} v_max_n >= 3980 error soft message no   # Stop when solidified

run 100000 # 5000000  # Run for this many steps
Neighbor list info ...
  update every 1 steps, delay 10 steps, check yes
  max neighbors/atom: 2000, page size: 100000
  master list distance cutoff = 3.8
  ghost atom cutoff = 3.8
  binsize = 1.9, bins = 5 5 5
  5 neighbor lists, perpetual/occasional/extra = 1 4 0
  (1) pair lj/cut, perpetual
      attributes: half, newton on
      pair build: half/bin/atomonly/newton
      stencil: half/bin/3d
      bin: standard
  (2) compute orientorder/atom, occasional
      attributes: full, newton on
      pair build: full/bin/atomonly
      stencil: full/bin/3d
      bin: standard
  (3) compute coord/atom, occasional
      attributes: full, newton on
      pair build: full/bin/atomonly
      stencil: full/bin/3d
      bin: standard
  (4) compute cluster/atom, occasional
      attributes: full, newton on
      pair build: full/bin/atomonly
      stencil: full/bin/3d
      bin: standard
  (5) compute rdf, occasional, copy from (1)
      attributes: half, newton on
      pair build: copy
      stencil: none
      bin: none
Per MPI rank memory allocation (min/avg/max) = 9.703 | 9.707 | 9.709 Mbytes
Step Temp PotEng c_msd[4] v_twopoint v_fit v_max_n Press Volume Density 
    4000      0.60279   -6.8791633 7.8977394e-31 1.6453622e-32 8.3333333e+20            8    5.4044907    849.69303    1.0168378 
    4100   0.58757212   -6.9028961  0.026160213 0.00053171157  0.023741566            8      5.77243    842.86961    1.0250696 
    4200   0.58669217   -6.9662711  0.042394259 0.00084115584  0.018566945           12     5.636697    840.22231    1.0282993 
    4300   0.58055436   -6.9718887  0.054546193 0.0010570966  0.015321356           11    5.4004372    842.01249    1.0261131 
    4400   0.53869772   -6.9443033  0.064875366    0.0012287  0.013126339            9    6.0549592    835.90051    1.0336158 
    4500    0.5475102   -6.9501869  0.074890278 0.0013868568  0.011751717           10    5.3502239    843.89279    1.0238267 
    4600   0.55277887   -6.9136895  0.081003489 0.0014674543  0.010665589            8    6.0926963    836.96461    1.0323017 
    4700   0.54756438   -7.0008135  0.078825979 0.0013976236  0.009258238           10    5.2451987    842.07167    1.0260409 
    4800   0.55852457   -6.9775242  0.082515965 0.0014325687 0.0079013974           10    5.9114473    835.23602    1.0344381 
    4900   0.60261095   -6.9965862  0.091154128 0.0015502401 0.0071900366            6     5.636954    838.37081    1.0305702 
    5000   0.57718741   -6.9843655  0.098608623 0.0016434769 0.0067582231            5     5.505444    839.98123    1.0285944 
    5100   0.57537066   -6.9923439   0.10652886 0.0017406675 0.0065235337           14    5.8555571    835.52685    1.0340781 
    5200   0.57582761    -6.965409   0.11728266 0.0018795297 0.0064312525           16    6.1325497    833.94582    1.0360385 
    5300   0.54371173   -7.0053525   0.12412543 0.0019516575 0.0063884747           13    4.9816829    844.48862    1.0231044 
    5400    0.5936482   -6.9813665   0.13271636 0.0020480918 0.0063857078            5    5.8040112    836.93922     1.032333 
    5500    0.5859255   -6.9708909    0.1363021 0.0020651831 0.0063533662           10     5.912162    836.08761    1.0333845 
    5600   0.58681475   -7.0416903   0.13618838 0.0020266126 0.0062029841           14    5.4012016    838.04157    1.0309751 
    5700   0.55354329   -7.0045701   0.13651053 0.0019957679 0.0059725948           10    5.7500909    835.60317    1.0339836 
    5800   0.57376378   -6.9954649   0.14171675 0.0020361601 0.0057540251           11    5.5903087    838.03899    1.0309783 
    5900   0.55931926   -6.9933137   0.14996795 0.0021181912 0.0056134013           15    5.5610389    838.14073    1.0308531 
    6000   0.56429645   -7.0212414   0.14990067 0.0020819536 0.0054719462            5    5.8698652    832.77218    1.0374986 
    6100   0.56436623   -7.0383735   0.15918226 0.0021746208 0.0053360777            6    5.6734173    834.35979    1.0355245 
    6200   0.58672877   -7.0375382   0.16499932 0.0022177326 0.0052587206           17     5.474276    837.16928    1.0320493 
    6300   0.59089844   -7.0123804   0.16913311 0.0022372103 0.0051809214           15    5.8106944    834.62999    1.0351893 
    6400   0.57950834   -7.0129829   0.17018618 0.0022159657 0.0050903047            8    5.3818502    840.09311    1.0284574 
    6500   0.56664525   -7.0157703   0.16800186 0.0021538698 0.0049633388           11    5.9190739    832.78829    1.0374786 
    6600    0.5908293    -7.010946   0.16896588 0.0021334075 0.0048231575            7    5.8922285    833.60256    1.0364651 
    6700   0.60418278   -7.0086818   0.16492636 0.0020513228 0.0046615201            7    5.6786499    836.75026    1.0325662 
    6800   0.56192977   -7.0156154   0.16573031 0.0020310085 0.0044838921            9    5.6997075    835.21147    1.0344686 
    6900   0.57162538   -7.0340883   0.16774532 0.0020259095 0.0043248947           11    5.4872093    837.38131     1.031788 
    7000   0.59120352   -6.9901844   0.16735842  0.001992362 0.0041673071           11    5.8797425    834.96597    1.0347727 
    7100    0.5678778   -7.0306097   0.16740912 0.0019648956 0.0040182838           12    5.7687765     833.5305    1.0365548 
    7200   0.54523579   -7.0410647   0.17127024 0.0019822943 0.0038767434           11     5.277737    838.29844    1.0306592 
    7300   0.57460533   -7.0046997   0.17300112 0.0019748985 0.0037552003           12    6.0610795    831.72059    1.0388104 
    7400   0.57097346   -7.0585198   0.17795988 0.0020040526 0.0036428953           19    5.5200485    834.66794    1.0351422 
    7500   0.55547649   -7.0217963   0.18766374 0.0020851525 0.0035714377           17    5.9330036    832.15991     1.038262 
    7600   0.57677146   -7.0074845   0.17980222 0.0019715154 0.0034947085           11    5.8311501     834.3867    1.0354911 
    7700   0.56388121   -7.0234356    0.1834693 0.0019855984 0.0034033646           13    5.5819879     836.2017    1.0332435 
    7800   0.57251437   -7.0740975   0.19183557 0.0020495252 0.0033354451           25    5.6405384    832.51274     1.037822 
    7900   0.55628483    -7.034765   0.20326288 0.0021441231 0.0032942992           18    5.3901037    837.97589    1.0310559 
    8000   0.57341352   -6.9875168   0.20428776 0.0021279974 0.0032690557           19    6.0053114    833.88341    1.0361161 
    8100   0.56892662   -7.0305212   0.20379756 0.0020966826 0.0032343719           11     5.998655    830.66406    1.0401317 
    8200    0.5509588   -7.0541616   0.20899518 0.0021239346 0.0031996898           15    5.5597094     834.3431    1.0355452 
    8300   0.57400741   -7.0253209   0.21049793 0.0021134329 0.0031713804           19    5.7212639    834.54044    1.0353003 
    8400   0.56257118   -7.0379112   0.20758427 0.0020593677 0.0031274478           11    5.8105541    832.57441    1.0377451 
    8500   0.60061077    -7.044927   0.21192851 0.0020777304 0.0030912083           24    5.9911408    830.22761    1.0406785 
    8600   0.54880016   -7.0603254   0.21495072 0.0020828557 0.0030522514           12    5.4070686    835.54097    1.0340606 
    8700   0.56346832   -7.0375879   0.22418408  0.002147357 0.0030266726           14    5.6708255    833.74558    1.0362873 
    8800    0.5572736   -7.0558576   0.22789131 0.0021580615 0.0030088847            9    5.4011991    836.25483    1.0331779 
    8900   0.57268525   -7.0802335   0.23185598  0.002170936 0.0029986726            8    6.0010932    827.99989    1.0434784 
    9000   0.56610539    -7.032068   0.23788624 0.0022026503 0.0029879228           11    5.7417069    833.89098    1.0361067 
    9100    0.5787197   -7.0436892   0.23724098 0.0021725363 0.0029771336           10    5.4582447    836.66972    1.0326656 
    9200   0.56661864   -7.0329253   0.23835929 0.0021590514 0.0029599753           12    5.8654347    832.07307    1.0383703 
    9300   0.59098329   -7.0503613   0.24309106 0.0021782352 0.0029461413           10    5.5905589    835.00517    1.0347241 
    9400   0.55433351   -7.0479904   0.24860262 0.0022039239 0.0029353107            9    5.6816172    833.14325    1.0370365 
    9500   0.55404971   -7.0799921   0.25061041 0.0021983368  0.002926107           15    5.4862012    833.58549    1.0364864 
    9600   0.59607362   -7.0414378   0.25281391 0.0021945651 0.0029162175           12      5.74998    833.66086    1.0363927 
    9700   0.55954112   -7.0640301   0.25959075  0.002230161 0.0029080499           16    5.3314721    836.60164    1.0327496 
    9800   0.55890533   -7.0349548   0.26231789 0.0022305941 0.0029041163           18    5.7652254    832.99162    1.0372253 
    9900   0.58561161   -7.0263611   0.26140821 0.0022004057 0.0028965908           20    6.0481538    830.40363    1.0404579 
   10000   0.57437271   -7.0833079   0.25296951 0.0021080792 0.0028775292           27    5.1632286    837.53602    1.0315974 
   10100   0.59533328   -7.0580011   0.25128109 0.0020732762 0.0028485459           25    5.6878125    833.19238    1.0369754 
   10200   0.56776023   -7.0695282   0.25702533   0.00209988 0.0028200834           18    5.7083025    831.72182    1.0388089 
   10300   0.56747427   -7.0096216   0.25920221 0.0020971051 0.0027974744           21    5.6844947    836.01354    1.0334761 
   10400   0.57139957   -7.0100002   0.26173461 0.0020972324 0.0027731772           27     5.639214    836.67565    1.0326582 
   10500   0.54415213   -7.0641272    0.2673389 0.0021217372 0.0027545696           26    5.4645105    834.94827    1.0347946 
   10600   0.54921906   -7.0299155    0.2690597 0.0021152491 0.0027344807           11    5.6675402    834.71628    1.0350822 
   10700   0.57468804   -7.0123301   0.27456823 0.0021383818 0.0027198396           12    5.9402642    832.34749     1.038028 
   10800   0.56983781   -7.0488975   0.27222258 0.0021004828 0.0027025593           15    5.5101027    835.44041    1.0341851 
   10900   0.55001517    -7.059302    0.2793228 0.0021354953 0.0026865278           30    5.5534767    834.18646    1.0357397 
   11000   0.58651452   -7.0068286   0.28462936 0.0021562829 0.0026760343           48    6.0514097    832.00047     1.038461 
   11100   0.56435119   -6.9909135   0.28690672 0.0021539543 0.0026664977           46    5.6188922    837.69451    1.0314022 
   11200   0.53223031   -7.0244513   0.28621635 0.0021295858 0.0026536117           30    5.5906815    835.61986     1.033963 
   11300   0.56041245   -7.0295615   0.28600405 0.0021091743 0.0026395371           37    5.7692869    833.50699     1.036584 
   11400   0.58003409   -6.9884708   0.28520997 0.0020848681  0.002623234           53    5.7726078    836.16542    1.0332884 
   11500   0.58353737   -7.0377038   0.29015717 0.0021025881 0.0026070731           57     5.627416    834.78822     1.034993 
   11600   0.54656217    -6.989588   0.29775338 0.0021390328 0.0025956582           60    6.1237436    831.78976     1.038724 
   11700   0.57969099   -7.0532252   0.30685479 0.0021855754 0.0025899834           44    5.0829049    840.84857    1.0275334 
   11800   0.56835717   -7.0317899   0.30052938 0.0021223825 0.0025820087           32    6.1924384    828.32997    1.0430626 
   11900   0.56454003   -7.0482317   0.29534713 0.0020682571 0.0025674892           62    5.4873874    835.62517    1.0339564 
   12000   0.55503921   -7.0396874   0.29715861 0.0020636013 0.0025501877           38    5.3116783    838.33037      1.03062 
   12100   0.55616287   -7.0235282   0.30260647 0.0020840665  0.002534832           44     5.727279    834.42397    1.0354448 
   12200   0.56779862   -7.0842269   0.29814658 0.0020365203 0.0025194413           50    5.4570794     833.5683    1.0365077 
   12300   0.57669816   -7.0370697   0.30145384 0.0020423701 0.0025016014           50     5.738519    833.51045    1.0365797 
   12400   0.57787877   -7.0197222   0.30743623 0.0020661036 0.0024864907           25    5.7198461    835.24374    1.0344286 
   12500   0.55930469   -7.0450561   0.31223464 0.0020815642 0.0024747319           32    5.3950184    836.89958    1.0323819 
   12600   0.61039938   -7.0531294   0.30912644  0.002044487 0.0024626293           61    6.1090179    828.25436    1.0431578 
   12700   0.57103384   -7.0700243   0.30726901 0.0020162008  0.002446993           27    5.7662322     831.0099    1.0396988 
   12800   0.57645798    -7.075714   0.30991585 0.0020176813 0.0024304819           46    5.2055233    837.54675    1.0315842 
   12900   0.60238511   -6.9915147   0.31155308 0.0020126167 0.0024157174           18    6.1131124    832.03946    1.0384123 
   13000   0.57241882   -7.0316952   0.32030537 0.0020532395 0.0024026478           20    5.7368055    834.01139    1.0359571 
   13100   0.57953667   -7.0369754   0.32457791 0.0020647449  0.002393621           41    5.5580117    835.99964    1.0334933 
   13200   0.55675664   -7.0401178   0.32626785 0.0020597717  0.002383123           37    5.7892041    832.55495    1.0377693 
   13300   0.58420087    -7.072227   0.33427408  0.002094449 0.0023772613           63    5.6539296    832.14037    1.0382864 
   13400   0.56868608   -7.0630651   0.33304514 0.0020711761 0.0023697222           54    5.6259076    833.03794    1.0371676 
   13500   0.56322206   -7.0019335   0.32302209 0.0019939634 0.0023585796           42    5.8227762    834.18771    1.0357381 
   13600   0.56071568   -7.0502581   0.32592897 0.0019971137 0.0023441794           17    5.5535314    834.66636    1.0351441 
   13700   0.58355333   -7.0617741   0.32652819 0.0019861811 0.0023302686           32    5.6588266    833.32136    1.0368149 
   13800    0.6084978   -7.0297458   0.32948486 0.0019896428 0.0023169975           61    5.8040383    833.91609    1.0360755 
   13900    0.5727814   -7.0580104   0.33830069 0.0020281815  0.002305894           40     5.406075     835.7859    1.0337576 
   14000   0.57006922   -7.0034128   0.34346798 0.0020444522 0.0022979303           29    6.3146165    828.38633    1.0429916 
   14100   0.53257522   -7.0608898    0.3534164 0.0020887494 0.0022927157           54    5.5731689     833.0079    1.0372051 
   14200    0.5454885    -7.048992   0.35570594 0.0020874761 0.0022891548           61    5.5888632    833.93134    1.0360565 
   14300   0.57213281   -7.0057821   0.35410885 0.0020635713  0.002284489           80    5.9791599    832.44314    1.0379087 
   14400   0.56309945   -7.0535585    0.3582288 0.0020730832 0.0022793197           60    5.3394766    836.65837    1.0326796 
   14500   0.56704684   -7.0379806    0.3587454 0.0020617551 0.0022746186           21    6.0076713    830.25998    1.0406379 
   14600    0.5984455   -7.0380207   0.35841979  0.002045775 0.0022678549           46    5.6100488    834.93279    1.0348138 
   14700   0.55218636   -7.0269124   0.36566482 0.0020729297 0.0022632616           82    5.8547035    832.57383    1.0377458 
   14800   0.56371821   -7.0847428   0.36434362 0.0020514843 0.0022584203          107    5.3305628    835.53844    1.0340637 
   14900   0.57316041   -7.0138285   0.36599127  0.002046931 0.0022532409           59    6.0238629    831.41801    1.0391885 
   15000   0.58981644   -7.0676428   0.36629011  0.002034945 0.0022475883           58    5.3581751    836.36023    1.0330477 
   15100   0.57276729   -7.0812388   0.37236131 0.0020549741 0.0022417282           59    5.6414842    831.39581    1.0392162 
   15200   0.59257609   -7.0489789   0.36712793 0.0020127627 0.0022366213           68    5.8087446    832.34517    1.0380309 
   15300   0.57784741   -7.0745968    0.3637818 0.0019813823 0.0022284738           63    5.3751607     835.2371    1.0344368 
   15400   0.55989745   -7.0416859   0.36774851 0.0019899811 0.0022192896           81    5.7433837    832.94445    1.0372841 
   15500   0.56353485   -7.0764459   0.36925609 0.0019852477 0.0022108049           85    5.5371326    832.96881    1.0372537 
   15600   0.54715874   -7.0740451   0.35998604 0.0019230023 0.0022005164           28    5.7838211    830.07652    1.0408679 
   15700   0.56161353   -7.0718842   0.36042994   0.00191311 0.0021874035           33    5.1294458    838.07732    1.0309311 
   15800   0.61820031    -7.060495   0.35585044 0.0018768483 0.0021744346           57    5.7799319    832.02017    1.0384364 
   15900   0.57974902   -7.0809283   0.35904073 0.0018817647 0.0021604557           41    5.7070903    830.96796    1.0397513 
   16000   0.58034369    -7.046161   0.36775274 0.0019153788 0.0021483488           48    5.7774904    832.00981    1.0384493 
   16100   0.57636998   -7.0719735     0.377494 0.0019539026 0.0021394052           27    5.6463338     832.0697    1.0383745 
   16200   0.55579465   -7.0508872   0.38099412 0.0019598463 0.0021322407           35    5.6661539     832.9224    1.0373115 
   16300   0.56132379   -7.0530858   0.38100235 0.0019478647 0.0021248157           24    5.6263492    833.18962    1.0369788 
   16400   0.58376234   -7.0288635   0.38907515 0.0019770078 0.0021187208           40    5.7427181    833.67252    1.0363782 
   16500   0.59476613   -7.0693371   0.38825611 0.0019608894 0.0021128343           23    5.5280012     834.1284    1.0358118 
   16600   0.56701354   -7.0682645   0.38304389  0.001922911 0.0021052536           29    5.7983059    830.06822    1.0408783 
   16700   0.56632447   -7.0515867   0.38564895 0.0019243959 0.0020968478           19    5.3494993    837.33763    1.0318418 
   16800   0.55157266   -7.0230345   0.39205492 0.0019447168 0.0020898983           24    5.4992174    837.03769    1.0322116 
   16900   0.56945191   -7.0511259   0.40077918 0.0019762287 0.0020844577           20    5.8728512    830.57543    1.0402427 
   17000   0.54482506   -7.0970304   0.40574606 0.0019889512 0.0020802147           24     5.708002    829.27411     1.041875 
   17100   0.55928082   -7.0675646   0.40260833 0.0019620288 0.0020760968           11    5.5906765    833.06442    1.0371347 
   17200   0.57632302   -7.0516268   0.39617483 0.0019194516 0.0020697633           22    5.7550249    832.51522    1.0378189 
   17300   0.61792558   -7.0487721   0.39926182 0.0019232264 0.0020630132           13    5.8280169     832.0575    1.0383898 
   17400   0.56249356   -7.0537387   0.40674053  0.001947991 0.0020575301           12    5.6173272    833.80447    1.0362142 
   17500   0.58244734   -7.0441685    0.4071937 0.0019390176 0.0020527045           19    5.6476217    834.01338    1.0359546 
   17600   0.56977775   -7.0112038   0.40098655 0.0018986105 0.0020458667           11    6.0310869    831.34638     1.039278 
   17700   0.58372228   -7.1126656   0.39575237 0.0018632409 0.0020372089           25    5.1874947    835.28301    1.0343799 
   17800   0.56158144   -7.0802458   0.40044252 0.0018747308 0.0020285106           21     5.895497    827.95127    1.0435397 
   17900   0.57562766   -7.1180032   0.40452266 0.0018832525 0.0020212482           17    5.4394425    831.63613    1.0389159 
   18000   0.59072291   -7.0727184   0.40709799 0.0018847129 0.0020136301           26    5.6906118    831.32974    1.0392988 
   18100   0.57438347   -7.0709015   0.41836223 0.0019261612 0.0020081082           27    5.8128584    829.97753     1.040992 
   18200   0.56418139   -7.0537469   0.41925054 0.0019196453 0.0020039286           60    5.8080872    830.87362    1.0398693 
   18300   0.61683304   -7.0590185   0.41923947  0.001909105 0.0019992116           79    5.9168794    830.20741    1.0407038 
   18400   0.55851689   -7.0492883    0.4190997 0.0018980964 0.0019943467           70    5.4726486    835.50195    1.0341089 
   18500   0.58510001   -7.0679339   0.42051277 0.0018942016 0.0019887951           15    5.8186908    830.34853    1.0405269 
   18600   0.58438332   -7.0727246    0.4233508 0.0018967329 0.0019834584           19    5.8116115    830.02597    1.0409313 
   18700   0.55779259    -7.064231   0.42249196 0.0018827627 0.0019781845           21    5.1074005    838.94983     1.029859 
   18800   0.56004327     -7.06848   0.42579757 0.0018874005 0.0019723977           23    5.7553276    830.96182     1.039759 
   18900   0.57324463   -7.0868059   0.42761953 0.0018854476 0.0019672564           32    5.8071397     829.2455     1.041911 
   19000   0.56938107   -7.0469739   0.42523824   0.00186508 0.0019612489           34    5.7190556    832.82531    1.0374324 
   19100   0.57936611   -7.0768892    0.4266874 0.0018616378 0.0019553627           33    5.5104938    833.91351    1.0360787 
   19200   0.54466744   -7.0825496   0.42308914 0.0018363243 0.0019489728           39    5.6349027    831.85904    1.0386375 
   19300   0.58022725   -7.0772383   0.42709204 0.0018440934  0.001942127           41    5.6523977    832.24471    1.0381562 
   19400   0.58163411   -6.9976768    0.4355605 0.0018709643 0.0019364806           42    5.9431743    833.49581    1.0365979 
   19500   0.58186284   -7.0678623   0.42799782 0.0018290505 0.0019307841           38    5.3819667    835.94363    1.0335625 
   19600   0.57313248   -7.0103502   0.42664317  0.001813959 0.0019237488           38    6.4132623    827.00847    1.0447293 
   19700   0.52863586   -7.0464964   0.43458979 0.0018383662 0.0019174551           32    5.4772351    835.17064    1.0345191 
   19800   0.55962389   -7.0589956   0.42726049 0.0017982343  0.001910914           33    5.6688799    832.84108    1.0374128 
   19900   0.57756906   -7.0398003   0.42634965 0.0017853838 0.0019029833           28    5.9234531    830.95213    1.0397711 
   20000   0.55666935   -7.0801576   0.43033371 0.0017930571 0.0018954389           42    5.5215116    832.90855    1.0373288 
   20100   0.58286342   -7.0311868   0.43433117 0.0018007096 0.0018884769           40    5.8377093    832.47183     1.037873 
   20200   0.56656995   -7.0672072   0.44224261 0.0018244332 0.0018826377           26    5.3102397    836.58609    1.0327688 
   20300   0.61095394   -7.0228453   0.43854712 0.0018002755  0.001876586           40    5.6449054    836.01884    1.0334695 
   20400   0.59115173   -7.0623809   0.43691694 0.0017847914 0.0018703388           71    5.6040072    833.42019    1.0366919 
   20500   0.55922989   -7.0760783   0.43449823 0.0017662529 0.0018632787           22    5.4245381    834.48986    1.0353631 
   20600   0.59261789   -7.0426727   0.43554704 0.0017619216 0.0018560467           22    5.8324725     832.0648    1.0383807 
   20700   0.55800389   -7.0673892   0.42539856 0.0017125545 0.0018474812           39    5.4211204    834.86512    1.0348977 
   20800   0.56989616   -7.0300885   0.43084556  0.001726144 0.0018386681           33    5.9021881    831.39249    1.0392204 
   20900   0.55739091   -7.0406194   0.43328585  0.001727615 0.0018304652           34    5.8115965     831.8252    1.0386798 
   21000   0.54580186   -7.0613259   0.43091409 0.0017099765 0.0018222896           46     5.736921    831.41411    1.0391933 
   21100   0.56688791   -7.0466031   0.44728083 0.0017665119 0.0018149225           33    5.5210142    835.40243    1.0342321 
   21200   0.57910627   -7.0302151   0.46057046 0.0018104184 0.0018105881           23    6.2165602     827.9363    1.0435585 
   21300   0.55347498   -7.0806027   0.46255423 0.0018096801 0.0018068171           39    5.3733148    834.71325     1.035086 
   21400   0.55809688   -7.0419045   0.45898057 0.0017873075 0.0018026983           38    5.4379041    836.78582    1.0325223 
   21500   0.57269884   -7.0569847   0.45012872 0.0017446849 0.0017974377           30    6.0073199     829.0692    1.0421325 
   21600   0.56362167   -7.0919741   0.44619989 0.0017214501 0.0017906368           54    5.4716982    833.06124    1.0371386 
   21700   0.58233134   -7.0348114   0.44905576 0.0017244844 0.0017839114           26    5.8657785    832.27031    1.0381243 
   21800   0.58344866   -7.0143265   0.45966764 0.0017571392  0.001778159           64    6.0758592    830.72301    1.0400579 
   21900   0.55061709   -7.0932919   0.46016706 0.0017510162 0.0017733187           50     5.226139    835.65529    1.0339191 
   22000   0.57163936   -7.0640315   0.46292315 0.0017534967 0.0017683785           50    5.9321462    829.22384    1.0419382 
   22100   0.58089555   -7.0652726   0.46575084 0.0017562248 0.0017639894           57    5.2455881    837.63834    1.0314714 
   22200   0.56700213     -7.05222   0.47107597 0.0017683032 0.0017596551           45    5.8233678    830.97286    1.0397452 
   22300   0.55270353   -7.0559468   0.46721328  0.001745939  0.001755182           76    5.7945472    831.27079    1.0393725 
   22400   0.57134742     -7.04348   0.46907626 0.0017450754 0.0017504372          110    5.4722306    836.18949    1.0332586 
   22500   0.57742737   -7.0431839   0.46460393 0.0017207553 0.0017455596           65    5.6419037    834.70632    1.0350946 
   22600   0.56487692    -7.067274   0.46381241 0.0017102227 0.0017402851           56    5.6190492    832.45608    1.0378926 
   22700   0.55876441   -7.0625569   0.46550672 0.0017089086 0.0017346619           63    5.4581812     834.8145    1.0349605 
   22800    0.6000209   -7.0414636     0.471084 0.0017217982 0.0017293908           82    6.1801406    828.07596    1.0433825 
   22900   0.56572529   -7.1287409   0.46796811 0.0017029407   0.00172421           84    5.2255429    833.62687    1.0364349 
   23000   0.58005118   -7.0951824   0.46893722 0.0016990479 0.0017189254           77    5.4616944    832.96838    1.0372543 
   23100   0.58967731   -7.0600235    0.4723849 0.0017041302  0.001713753           63    5.6610331    833.22131    1.0369394 
   23200    0.5724839   -7.0850597   0.47618386 0.0017104305 0.0017092024           57    5.4082841    834.15551    1.0357781 
   23300   0.54558726   -7.0570392   0.46828613 0.0016748431 0.0017037771           61    5.8523766    830.29524    1.0405937 
   23400   0.56337085   -7.0818728   0.46801133  0.001666707 0.0016977812           52    5.3519456    834.75245    1.0350374 
   23500   0.56194568   -7.0331864   0.47128295 0.0016712161  0.001692162           47    5.9761697    830.67767    1.0401146 
   23600   0.57576262    -7.049757   0.46884168 0.0016555144 0.0016864666           53    5.9869961    829.96031    1.0410136 
   23700   0.58376507   -7.1267801   0.46769699 0.0016445041 0.0016800693           89    5.5935632    829.42925    1.0416802 
   23800   0.58515414   -7.0866613   0.47032491 0.0016467959 0.0016740438           86     5.975078    827.42391    1.0442048 
   23900   0.57643697   -7.0996554   0.47100418  0.001642274  0.001668206           71    5.4009715     833.7369    1.0362981 
   24000   0.54920849   -7.0659993   0.47594227 0.0016525773  0.001662444           69    5.6529245    831.87786     1.038614 
   24100   0.60133305   -7.0646296   0.47272053   0.00163458 0.0016568638           58    5.9303814    829.63491    1.0414219 
   24200   0.56518483   -7.1025634   0.47392808 0.0016319837 0.0016508251           68    5.4528937    832.51125    1.0378238 
   24300   0.57686605   -7.0906693   0.47153047 0.0016170455 0.0016450131          118    5.8293378    828.47653    1.0428781 
   24400   0.57005473   -7.0722201   0.47205171 0.0016121984 0.0016387284           78    5.9734434    828.44318      1.04292 
   24500    0.5976858   -7.0564066   0.47421696 0.0016129828 0.0016326803          126    5.7544751    832.01737    1.0384399 
   24600    0.5733501   -7.0877788   0.47220232 0.0015996013  0.001626762          143    5.4696745    833.20199    1.0369634 
   24700   0.56903662   -7.1020512   0.47745537 0.0016108481 0.0016206543           87    5.7372575    828.99283    1.0422286 
   24800   0.58973404    -7.103053   0.48293126 0.0016227529 0.0016154269           83    5.5888994    830.97713    1.0397398 
   24900   0.56292762   -7.0429615     0.487028 0.0016299464 0.0016105061          103    6.0572879    828.76132    1.0425197 
   25000   0.53940854     -7.10439    0.4925838  0.001641946 0.0016061287          106    5.4598446    832.00669    1.0384532 
   25100   0.56492527   -7.0688061   0.48762603 0.0016189443 0.0016016157          106     5.905951    829.07005    1.0421315 
   25200   0.57395897   -7.0912429   0.48503246 0.0016039433 0.0015966593           92    5.4101769    834.28032    1.0356231 
   25300   0.53107334   -7.0716092   0.48221233 0.0015883146 0.0015910293          111    5.8122561    829.86656    1.0411312 
   25400   0.56954298   -7.0960165   0.48794239 0.0016008608 0.0015860197           90    5.5552438     831.7259    1.0388038 
   25500   0.56308338   -7.0555074   0.49584655 0.0016204135 0.0015811476           93    5.7326029    832.14925    1.0382753 
   25600   0.54745795   -7.1004133    0.4962757 0.0016154807 0.0015770752          110    5.6004235    830.76621    1.0400038 
   25700   0.57373959   -7.0650233    0.4886118 0.0015843443 0.0015723154          120    6.1501173    826.57248    1.0452804 
   25800   0.55960093    -7.107984   0.48892947 0.0015792295 0.0015671502          116    5.1797527    835.49745    1.0341145 
   25900   0.55323794    -7.093823   0.49351311   0.00158788 0.0015621427           48    5.7446927    829.31671    1.0418215 
   26000   0.58882482   -7.0727052   0.49970871 0.0016016305 0.0015577671           91    5.7475642    831.12422    1.0395558 
   26100   0.56371662   -7.0850496   0.50221352 0.0016034914 0.0015537203           52    5.6770517    830.46336     1.040383 
   26200   0.53741344   -7.0835672   0.50526285 0.0016070701 0.0015499506           46     5.731247    829.79659     1.041219 
   26300   0.59448762   -7.0828042   0.49848714 0.0015794903 0.0015457136          105    5.5293033    833.60419    1.0364631 
   26400   0.56670916   -7.0605927   0.50004091 0.0015784119 0.0015411553           53    6.0152743    828.92137    1.0423184 
   26500   0.57794969   -7.0753296   0.50771136 0.0015965766 0.0015372421           88    5.7660662    831.21426    1.0394432 
   26600   0.57266842   -7.1228213   0.50161019 0.0015714605 0.0015331019           91    5.6339274    829.06159    1.0421421 
   26700   0.59357434   -7.1131755    0.5000882 0.0015608246 0.0015285923           93    5.7707122    828.26237    1.0431477 
   26800   0.56380774   -7.0607201   0.50246286 0.0015623845  0.001524139           74    5.7212798    832.27675    1.0381162 
   26900   0.57524421   -7.0940226   0.50404051 0.0015614638 0.0015195238          108    5.5600764    831.74044    1.0387856 
   27000   0.56271695   -7.0833392   0.50974415 0.0015732844 0.0015155997          114    5.8436373    828.91374     1.042328 
   27100   0.58141724   -7.0673686   0.50601523 0.0015560124 0.0015114099          115    5.6637064     832.4743    1.0378699 
   27200   0.58004907   -7.0517417   0.50791732 0.0015561192 0.0015072633           52    5.7505316     832.1592    1.0382629 
   27300   0.55333471   -7.1045378   0.50421978 0.0015391324 0.0015028608          104    5.2345346    834.64918    1.0351655 
   27400   0.56722731   -7.0904396   0.50791473 0.0015447528 0.0014983749          138     5.887435    828.00676    1.0434697 
   27500   0.58488442   -7.1117536   0.50337216 0.0015253702 0.0014938999          124    5.6489166    829.66021    1.0413902 
   27600   0.59349185   -7.0593998   0.49428158  0.001492396 0.0014886578           85    5.9896175    828.93667    1.0422992 
   27700   0.55824122   -7.1010998   0.49698546 0.0014951427 0.0014830696          106    5.7769651    828.49545    1.0428542 
   27800   0.57751344   -7.1011587   0.49309488 0.0014781021 0.0014775315          105    5.5462867    831.83978    1.0386616 
   27900   0.58558377   -7.0883341   0.49942118    0.0014917 0.0014721175           98    5.8892164    828.36923    1.0430132 
   28000   0.55058265   -7.1091702   0.49796051 0.0014820253 0.0014668238          103    5.3905611    832.68708    1.0376047 
   28100   0.58100841   -7.0629314   0.49583776  0.001470456 0.0014613044           97    5.7771983    831.26778    1.0393763 
   28200   0.56393173   -7.0569951   0.49553065  0.001464334  0.001455706           92    6.0303896       828.46    1.0428989 
   28300   0.53992682   -7.0891979    0.5022282 0.0014788816 0.0014502837           81    5.3998117    833.58836    1.0364828 
   28400   0.56195971   -7.0420347   0.51319743  0.001505861 0.0014457471          116    5.9529363    830.23154    1.0406735 
   28500   0.57184315   -7.0724212   0.52452394 0.0015336957 0.0014422843          105    5.5394647    833.69984    1.0363442 
   28600   0.57372823   -7.0753202   0.52716545 0.0015360298 0.0014391334          115    5.5065113    833.94982    1.0360336 
   28700   0.55915333   -7.0699803   0.52035311 0.0015108975 0.0014358219          112    5.6916374    831.69818    1.0388384 
   28800    0.6061854   -7.0999615    0.5115472 0.0014801713  0.001431573           99    5.6749453    829.99528    1.0409698 
   28900   0.54348914   -7.0824235   0.51381396 0.0014815858 0.0014271989           92    5.6936392    830.80307    1.0399576 
   29000   0.55923713   -7.1010595   0.50988142 0.0014651765 0.0014227035           78    5.2157586    835.34529    1.0343028 
   29100   0.56424916   -7.0567435   0.51279163 0.0014684754 0.0014180375          106    6.3332179    825.04079     1.047221 
   29200   0.56521809   -7.1222219   0.51157313  0.001459969 0.0014134603          117    5.6196699    828.70927    1.0425852 
   29300   0.57011018   -7.0727909   0.52187549 0.0014842875 0.0014094102           87    5.5743231    832.52124    1.0378114 
   29400   0.57838716   -7.0764164   0.51696559  0.001465322 0.0014053031           84    5.5797204    832.67876     1.037615 
   29500    0.5512112   -7.0827933   0.51528171  0.001455598 0.0014010687          110    5.7989854    829.40617    1.0417092 
   29600   0.58378811   -7.0897504   0.51554895 0.0014514328 0.0013966686           94    5.5523198    832.76936    1.0375021 
   29700   0.57390787   -7.0697844   0.51708225 0.0014508481 0.0013922304           97    5.8798479    829.71801    1.0413176 
   29800   0.54826527   -7.0785551   0.51678751 0.0014451552 0.0013877879           93    5.4215773    834.10011    1.0358469 
   29900   0.56754998   -7.0524787   0.51367673  0.001431652 0.0013832998           61    5.7359878    832.18605    1.0382294 
   30000   0.57810696   -7.0862333   0.51149413  0.001420817 0.0013786357           77    5.7693324    829.51869    1.0415679 
   30100   0.58707311   -7.1168995   0.50771864  0.001405644 0.0013737257           91    5.9506896    825.91062     1.046118 
   30200   0.56405481   -7.0696236   0.51298482  0.001415521 0.0013687124           38     5.747021    831.04119    1.0396597 
   30300   0.60113995   -7.1201438   0.51069433 0.0014045498 0.0013640277          107    5.2213296    834.36665     1.035516 
   30400   0.57369561   -7.0762753   0.51224131 0.0014041702 0.0013590683          111    6.0014653    827.22808     1.044452 
   30500   0.59095797   -7.1105136   0.51664634  0.001411602 0.0013545933          108    5.3323226    833.67037    1.0363808 
   30600   0.59488546   -7.0557278   0.51205306   0.00139448 0.0013499453          107    6.0234582    829.06458    1.0421384 
   30700   0.56286448   -7.1005731   0.50986295 0.0013839928 0.0013450938           98    5.5973376    830.78089    1.0399854 
   30800   0.53945208   -7.0705581   0.51447619  0.001391981 0.0013402624           88    5.6230525    832.14732    1.0382777 
   30900   0.57514123   -7.0607041   0.52016144 0.0014028086 0.0013358309           91    5.7864065    831.44007    1.0391609 
   31000   0.57659336   -7.0661684   0.52556856 0.0014128187 0.0013319332           50    5.5748827     833.7394     1.036295 
   31100   0.55396326   -7.0538355   0.51736942  0.001386306 0.0013277881           91    6.0416035    828.64133    1.0426707 
   31200   0.54563639   -7.0744739   0.50896031 0.0013594025 0.0013229783           78    5.7757834    829.92656     1.041056 
   31300   0.57038267   -7.0797988     0.503741 0.0013411635 0.0013176437           38    5.3183019    835.80009      1.03374 
   31400   0.58407567   -7.0642059   0.51102964 0.0013562358 0.0013125464           76    6.0107552    828.74512    1.0425401 
   31500   0.57552134   -7.1477828   0.51379979 0.0013592587 0.0013077182           78    5.1333596    833.23346    1.0369243 
   31600   0.55003454   -7.0842493   0.51106828 0.0013477539 0.0013028755           27    5.9207252    827.44941    1.0441726 
   31700   0.57907147   -7.0736364   0.51041737 0.0013417912 0.0012978678           42    5.7330375    830.90534    1.0398296 
   31800   0.57177345   -7.1112073   0.50080991 0.0013123949 0.0012925825           44    5.7018795    829.00346    1.0422152 
   31900   0.55805881   -7.1325882   0.51149361 0.0013361902 0.0012872778           52    5.2106452    833.57049     1.036505 
   32000   0.56602117   -7.0700399   0.53002735 0.0013802795 0.0012830549           26    5.7813673    830.54167     1.040285 
   32100   0.54464613   -7.0729378   0.53129428 0.0013792686  0.001279471           62    5.6768718    831.56597    1.0390036 
   32200    0.5557663   -7.1100767   0.52830528 0.0013672497 0.0012757868           53    5.4802033    831.48742    1.0391017 
   32300   0.59271064   -7.0737104    0.5308828 0.0013696666 0.0012720287           83    6.1674384    826.57542    1.0452767 
   32400   0.59564916   -7.0804262   0.53314862  0.001371267 0.0012684798           56    5.3198847    836.09698     1.033373 
   32500   0.55796861   -7.0450318   0.53035037 0.0013598727 0.0012647481           76    5.4375478    836.55033    1.0328129 
   32600   0.55415512   -7.0591132    0.5441929 0.0013910861 0.0012613629           85    5.8061059     830.9023    1.0398334 
   32700   0.57836219   -7.0922175   0.54748627 0.0013952249 0.0012586226           73    6.0738861     825.6773    1.0464137 
   32800   0.54803345   -7.1422428   0.55702434 0.0014152041 0.0012562709          134    5.1052299    833.93912    1.0360469 
   32900   0.56976833   -7.0631899   0.54642615 0.0013840581 0.0012537535           78     6.162054    826.72232    1.0450909 
   33000   0.57383681   -7.0931785   0.55207144 0.0013941198 0.0012510934          107    5.5266456     832.2341    1.0381694 
   33100   0.57985095    -7.065844   0.54536995 0.0013730361 0.0012482976          117    5.7218739    831.69175    1.0388464 
   33200   0.57354221   -7.1268807    0.5449529 0.0013678536 0.0012452356          105    5.3098216    832.94273    1.0372862 
   33300   0.57383262   -7.0963048   0.53783807 0.0013459411 0.0012419375          107    5.9152549    827.18448     1.044507 
   33400   0.57519109   -7.0757357   0.53846255 0.0013434694 0.0012383137           93    5.3393366    836.01484    1.0334745 
   33500    0.5827702   -7.0660105   0.54849202  0.001364408 0.0012351796          123    5.6085111    833.40141    1.0367153 
   33600   0.58052089   -7.0987454     0.548552  0.001360496 0.0012322911          124    5.8553078    827.86462    1.0436489 
   33700   0.56366805   -7.1077181   0.54935276 0.0013584391  0.001229325          137    5.4886818    831.60418    1.0389558 
   33800    0.5996019   -7.0912783   0.55131806 0.0013592654  0.001226442          146    5.4742545    833.38276    1.0367385 
   33900   0.58361602    -7.070692    0.5528728 0.0013590777  0.001223734          109    6.0932284      826.958    1.0447931 
   34000   0.58528749   -7.1102018   0.55386092 0.0013575022 0.0012209835          126    5.4056689    832.40075    1.0379616 
   34100    0.5374758   -7.1146447   0.55155131 0.0013478771 0.0012180642          135    5.5591104    830.02066     1.040938 
   34200   0.57349024    -7.078073   0.56155005 0.0013682993 0.0012154099          150    5.9198982    828.20237    1.0432233 
   34300   0.55021294   -7.0985657   0.56539149 0.0013736431 0.0012132218          129    5.5614923    831.02718    1.0396772 
   34400   0.55859346   -7.0748148    0.5642795 0.0013669561 0.0012110325           65    5.5966516    831.96875    1.0385005 
   34500   0.58477853   -7.0719982   0.55827196  0.001348483  0.001208604           82    5.7188134    831.32043    1.0393104 
   34600   0.55274558   -7.0653541   0.55873172  0.001345693 0.0012059903          152    5.8196812    830.26656    1.0406297 
   34700   0.57242524   -7.0971474     0.561526 0.0013485254 0.0012033594          136    5.7422369    828.99821    1.0422218 
   34800   0.59270557   -7.0869389   0.56474335 0.0013523547 0.0012008534          191    5.6871784    830.47141     1.040373 
   34900   0.55617191   -7.0661732    0.5699316 0.0013608682 0.0011986492          141    5.6155068    832.53241    1.0377974 
   35000   0.56574141   -7.0983681   0.56403456 0.0013429394 0.0011962524          135    5.6913847    829.83239    1.0411741 
   35100   0.56667901     -7.09325   0.56492942 0.0013412379 0.0011938381           77    6.0439623    825.84563    1.0462004 
   35200   0.58020338   -7.0829683   0.56448888 0.0013363847 0.0011914138          130    5.5675255    832.81325    1.0374475 
   35300   0.54753739    -7.070788   0.56191233 0.0013265163 0.0011888738          135    5.8290303    829.47178    1.0416268 
   35400   0.56632185   -7.0925461   0.55814456 0.0013138996 0.0011859956          135    5.5628037    831.98762     1.038477 
   35500   0.58374437   -7.0592135   0.56455125 0.0013252377 0.0011832625          111    5.7096941    832.13717    1.0382904 
   35600   0.58598107    -7.107843   0.56206461 0.0013156943 0.0011806981           62    5.7260345    829.16263    1.0420151 
   35700   0.57623401   -7.1053135   0.55579719  0.001297379 0.0011778124           81     5.915866    827.19646    1.0444919 
   35800   0.54366259   -7.0696787   0.55930303 0.0013019158 0.0011747795          107    5.7532342    830.73066    1.0400483 
   35900   0.57599156   -7.0806207    0.5653912 0.0013124215 0.0011720716          157    5.5572051    832.93769    1.0372925 
   36000   0.57449489   -7.1096826   0.55984142 0.0012959292 0.0011693329          156    5.7007046    829.10706     1.042085 
   36100   0.58429052   -7.1055539    0.5612556 0.0012956039 0.0011665075          159    5.8379615     828.1573    1.0432801 
   36200   0.58844338   -7.0847471   0.56270843 0.0012953693  0.001163722          137    5.6785798    830.69486    1.0400931 
   36300   0.58271842   -7.0828989   0.56470375 0.0012963814 0.0011609963          134     6.014719    827.19756    1.0444905 
   36400   0.56535232   -7.0980647   0.56617517 0.0012961886 0.0011584035          160    5.7360487    828.95937    1.0422706 
   36500   0.55155578   -7.0783266   0.57729082 0.0013180156  0.001155939          181    5.5640898    832.47641    1.0378672 
   36600   0.56054468   -7.0686714   0.58104273  0.001322957 0.0011538082          152    5.3648986    835.68654    1.0338805 
   36700   0.55034687   -7.0786939   0.57217422 0.0012992148 0.0011515682          115    6.0402327    826.70275    1.0451157 
   36800   0.57425695   -7.0977425   0.57091701 0.0012928374 0.0011491365          162    5.6772102    830.16176     1.040761 
   36900   0.60322048   -7.1127247   0.56707707 0.0012806618 0.0011464326          158     5.439764    832.19289    1.0382208 
   37000   0.58720918   -7.1024739   0.56932894 0.0012822724 0.0011438292          135    6.0545433    825.63234    1.0464706 
   37100   0.57787485   -7.0678117   0.57372525  0.001288691 0.0011413102          116    6.0023277    828.22083       1.0432 
   37200   0.55332339   -7.0671501   0.57606663 0.0012904718 0.0011388948           64    5.0105641    840.20968    1.0283147 
   37300   0.54946793   -7.0597104   0.57437568 0.0012832343 0.0011364254          141    5.7928185    830.64769    1.0401522 
   37400   0.57218074   -7.1002054   0.57152275 0.0012734464 0.0011339719          144     5.806838    828.22033    1.0432007 
   37500   0.57479872   -7.0917493   0.56877124 0.0012639361 0.0011313354          162    5.4094806    833.72469    1.0363133 
   37600   0.57411903   -7.1138846    0.5756744 0.0012758741 0.0011288391          172    5.5771305    830.10329    1.0408343 
   37700   0.58239543   -7.0796676   0.57649852 0.0012743115 0.0011264906          141    6.4589888    822.14025    1.0509156 
   37800   0.58174329   -7.1122307   0.58416711 0.0012878463 0.0011241579          140    5.2622732    834.50197    1.0353481 
   37900   0.54995339   -7.0694001   0.59509181 0.0013084692 0.0011223534          183    6.1522974    825.82588    1.0462254 
   38000   0.56529955   -7.1563192   0.60513284 0.0013270457 0.0011209205          165    5.3413417    830.42062    1.0404366 
   38100   0.56508257   -7.0826172   0.60562363 0.0013246361 0.0011196775          173    5.6369506    831.13474    1.0395426 
   38200   0.55609466    -7.066516   0.60894601 0.0013284162 0.0011183943          152    5.7893496    830.34971    1.0405254 
   38300   0.60863168   -7.0946579   0.60424752 0.0013147248 0.0011171644          154    5.6074477    831.64945    1.0388993 
   38400   0.58063005   -7.1152007   0.59621904 0.0012938781 0.0011155917          153    5.6491043    829.44389    1.0416618 
   38500   0.56380128   -7.1020356   0.59889953 0.0012963193   0.00111387          182      5.89519    827.25035    1.0444239 
   38600   0.56471409   -7.1007068   0.60333899 0.0013025453  0.001112209          171    5.5962567    830.64043    1.0401613 
   38700   0.57511081   -7.1105723   0.60102908 0.0012942056 0.0011107584          175    5.3516442    833.27842    1.0368683 
   38800    0.5922552   -7.0529751   0.59383245 0.0012754133 0.0011088675          189    5.9050844    830.13785     1.040791 
   38900   0.56801674   -7.0724847   0.60512327 0.0012963223  0.001107215          178    5.7418757    830.79633    1.0399661 
   39000   0.57269518   -7.1080787   0.61247701 0.0013087116 0.0011057806          174    5.6436507    829.63972    1.0414159 
   39100   0.54142773   -7.1118178   0.60989909 0.0012998702 0.0011044886          178     5.692646    828.64709    1.0426634 
   39200   0.57414842   -7.0982755   0.61144479 0.0012998401 0.0011030309          183     5.558644      831.339    1.0392872 
   39300   0.57971585   -7.0842409   0.61331145 0.0013004908 0.0011017607          208    5.9910756    827.41925    1.0442107 
   39400   0.56919102   -7.1004874   0.60876719 0.0012875786 0.0011002534          205    5.7563378    828.84394    1.0424158 
   39500    0.5752583   -7.1313346   0.61185929 0.0012908424 0.0010988232          195    5.6542186    827.86876    1.0436437 
   39600   0.58880341   -7.0907247   0.60842228 0.0012803499 0.0010973653          194    5.6234344    831.32892    1.0392998 
   39700   0.57744468   -7.0939422   0.60364468 0.0012670963 0.0010957068          187    5.6849898     830.5549    1.0402684 
   39800   0.55612332   -7.1088782   0.60431977 0.0012653261 0.0010939161          164    5.9656794    825.50025    1.0466381 
   39900   0.54002994   -7.1121958   0.59262246 0.0012377244 0.0010918151          182    5.3728243    832.43401    1.0379201 
   40000   0.57083417   -7.1033487   0.59573402 0.0012411125  0.001089655          157    5.5065517    831.92668    1.0385531 
   40100   0.55462119   -7.1038165   0.59892105 0.0012446406 0.0010875001          189    5.8390552    827.67021     1.043894 
   40200   0.53530641   -7.1401321   0.60676567 0.0012578061 0.0010856299          204    5.5277727    828.45049    1.0429108 
   40300   0.56961572   -7.1253768    0.6044663 0.0012499303 0.0010837954          182    5.6166184    829.00686    1.0422109 
   40400   0.57980225   -7.0857195   0.60931261 0.0012568329 0.0010819725          202    5.7349323    830.42961    1.0404253 
   40500    0.5681186   -7.0786484    0.6090579 0.0012532055 0.0010802916          212    5.9706709    827.42848     1.044199 
   40600   0.56244094    -7.102517   0.61651658 0.0012654281 0.0010786675          205    5.9354681    825.91436    1.0461133 
   40700   0.60624968   -7.1216155   0.61959996 0.0012686322 0.0010772417          170    5.5565238    830.23348    1.0406711 
   40800   0.56216219   -7.0793517   0.61441638 0.0012549354 0.0010757576          184    6.0775547    826.22031    1.0457259 
   40900   0.56563845   -7.1610038   0.61312326 0.0012492324 0.0010741468          229     5.014118     833.7883    1.0362343 
   41000   0.54790606   -7.0813424    0.6097523 0.0012393339  0.001072358          250    6.2173478    824.30156    1.0481601 
   41100   0.57248616   -7.0975585    0.6085096 0.0012337988 0.0010705296          229     5.610347    830.46446    1.0403817 
   41200   0.56141153   -7.1460839   0.61911058 0.0012522463 0.0010688202          217     5.397916      830.183    1.0407344 
   41300   0.55915324   -7.1139115   0.62102039 0.0012530678 0.0010674072          245    6.0570404    824.26744    1.0482035 
   41400   0.56892831   -7.1369792    0.6187552 0.0012454815 0.0010658288          250    5.6055118    828.11236    1.0433367 
   41500   0.55305318   -7.1101435   0.61291035 0.0012307437 0.0010641433          239    5.8018984    827.35424    1.0442927 
   41600   0.57470449   -7.1246399   0.62001279 0.0012420128 0.0010623682          264    5.4892977    830.61268     1.040196 
   41700   0.59414906   -7.1178159   0.62770148 0.0012543994 0.0010609813          276    5.6264548    829.75997     1.041265 
   41800   0.56241105   -7.1380721   0.62894985 0.0012538872 0.0010596724          298    5.4732034    829.16811    1.0420082 
   41900   0.53729643   -7.1278949   0.64142961 0.0012757152 0.0010585316          310    5.7783121    826.74823    1.0450582 
   42000   0.59084667   -7.1332136   0.65825057 0.0013060527 0.0010580141          329    5.5806049     828.7983    1.0424732 
   42100   0.55194719   -7.1194049   0.65648473 0.0012994551 0.0010575855          329    5.8173838    826.80588    1.0449853 
   42200   0.57078413   -7.1350085   0.66016599 0.0013036453 0.0010572287          352    5.7478752    826.74851    1.0450578 
   42300   0.58482953   -7.1308774   0.65365647 0.0012877393 0.0010567859          320    5.6974627    827.53567    1.0440638 
   42400   0.58610357   -7.1525919   0.66097072 0.0012990777 0.0010563587          294     5.545753    828.15998    1.0432767 
   42500   0.57403204    -7.098633    0.6591656 0.0012924816 0.0010559253          269    5.9656729     826.4072    1.0454894 
   42600    0.5741139   -7.1052964   0.66201406 0.0012950197 0.0010554326          278    5.4646826    832.14538    1.0382801 
   42700    0.5497143   -7.0975007   0.66152327  0.001291029 0.0010550038          303    5.9585663    826.23222    1.0457109 
   42800   0.57043585   -7.1618321   0.65568632 0.0012766478 0.0010543897          342    5.6286177    826.47403    1.0454049 
   42900   0.55809261   -7.1641401   0.65730618 0.0012768185 0.0010536789          360    5.7471516    824.47253    1.0479427 
   43000   0.57957783   -7.1483501    0.6604272 0.0012798977 0.0010530545          336    5.4676451    829.66134    1.0413888 
   43100    0.5893743    -7.168534   0.65524341 0.0012669053 0.0010523416          355     5.460762    828.35931    1.0430256 
   43200   0.57272932   -7.1441153   0.65288773 0.0012594285 0.0010514779          381    6.1623884    821.13394    1.0522035 
   43300   0.56077893   -7.1242958   0.65198667 0.0012547857 0.0010505542          363    5.6296079     828.6919     1.042607 
   43400    0.5719494   -7.1261088   0.65446095 0.0012566454 0.0010495537          325    5.6138482    828.69718    1.0426004 
   43500   0.55704239   -7.1744345   0.66112181 0.0012665169 0.0010487769          375    5.7620822    823.86096    1.0487206 
   43600   0.57667212    -7.165617   0.66298697 0.0012671769 0.0010481418          390    5.7747583    824.18172    1.0483125 
   43700   0.58058706   -7.1664222   0.65611684 0.0012511763 0.0010472901          375    5.4821935    827.81128    1.0437161 
   43800    0.5885514   -7.1139658   0.65962174 0.0012549881 0.0010464166          353     5.639227     829.4653    1.0416349 
   43900    0.5588416    -7.134414   0.66810486 0.0012682324 0.0010456363          375    5.6406845    827.86745    1.0436453 
   44000   0.56900566   -7.1715252   0.66951616  0.001268023 0.0010450368          345     5.549884    826.47308    1.0454061 
   44100   0.55624637    -7.180512    0.6670135 0.0012604186 0.0010444024          381    5.6946874    824.22186    1.0482615 
   44200   0.57117793   -7.1157489   0.66722876 0.0012579728 0.0010436879          383    6.0366142     824.5405    1.0478564 
   44300   0.56146948   -7.1657504   0.66795107 0.0012564918 0.0010429384          379    5.4166683    828.30855    1.0430896 
   44400   0.54143651   -7.1957574   0.66885094 0.0012553509 0.0010421619          387    5.5822169    824.42636    1.0480014 
   44500   0.57916949   -7.1619099   0.66400821  0.001243461 0.0010413249          360    5.9254884    822.84798    1.0500117 
   44600   0.59478234   -7.1719504   0.67050361 0.0012528094 0.0010405365          388    5.4717382    827.39102    1.0442463 
   44700   0.56879539   -7.1791821   0.67092999 0.0012508016  0.001039757          369    5.7535747    824.32829    1.0481261 
   44800   0.53299563   -7.1994309   0.66680583 0.0012403382  0.001038894          377     5.863497    821.10447    1.0522413 
   44900   0.55130521   -7.1778241   0.66140154 0.0012275455  0.001037876          376    5.5078472    826.88229    1.0448888 
   45000   0.57248036   -7.1447722   0.65806406 0.0012186371 0.0010367536          400    5.8039016     825.2975    1.0468952 
   45100   0.56257638   -7.1226041   0.65550869 0.0012112134 0.0010354948          415    6.1292549    822.75643    1.0501285 
   45200   0.55913208   -7.2288489   0.64953178 0.0011975143 0.0010340559          442    5.0550039    828.41955    1.0429498 
   45300   0.56986534   -7.1528941    0.6537376 0.0012026078 0.0010326046          437    6.0519447    822.09125    1.0509782 
   45400    0.5657258   -7.1720693   0.67012388 0.0012300365 0.0010314403          449     5.279422    829.66551    1.0413835 
   45500   0.57297551   -7.1375714   0.67420028  0.001234799 0.0010305394          441    5.6292068    827.94979    1.0435415 
   45600   0.57411223   -7.1738071   0.66867968 0.0012220023 0.0010295642          436    5.8657275    823.22599    1.0495295 
   45700   0.54267873   -7.1719827   0.68130408 0.0012423488 0.0010287157          452    5.2867654    829.11958    1.0420692 
   45800   0.54793528   -7.1184108   0.68529567 0.0012468989 0.0010281183          452    5.7939511    827.08097    1.0446377 
   45900   0.56605601   -7.1474287   0.68535846 0.0012442964 0.0010274812          463     5.706048    826.01056    1.0459915 
   46000   0.55370241   -7.1709305   0.68340945 0.0012380606 0.0010268347          444    5.8597568    822.98128    1.0498416 
   46100   0.55920262   -7.1722527   0.68493861 0.0012381392  0.001026144          447    5.4758492    827.14294    1.0445595 
   46200   0.56991477   -7.1466116   0.68311166 0.0012321639 0.0010253582          446    5.7673897    825.88592    1.0461493 
   46300   0.57308304   -7.1910325   0.69633555 0.0012533037 0.0010248414          444     5.661946    824.38406    1.0480552 
   46400   0.56858162   -7.1891111   0.69402777 0.0012464579 0.0010243561          441    5.8264802    822.58186    1.0503514 
   46500   0.56845386   -7.1431172   0.69186558 0.0012399025  0.001023862          442    5.6034177    827.90408    1.0435992 
   46600   0.56427555   -7.1540141   0.68587251 0.0012265245 0.0010231256          446    5.8437377    824.33973    1.0481116 
   46700   0.58190881   -7.2004008   0.69035636 0.0012318993 0.0010223925          452    5.5569943    824.87188    1.0474354 
   46800   0.55034391   -7.1666926   0.69541877 0.0012382813 0.0010217659          458    5.5267269    827.57104    1.0440191 
   46900   0.58113385    -7.134081    0.7026892 0.0012485593 0.0010213273          451    6.3102078    820.60747    1.0528785 
   47000   0.55061148   -7.1929817   0.71346536 0.0012650095 0.0010210587          504    5.4308133    826.41222    1.0454831 
   47100   0.56896259   -7.2000525   0.71237034 0.0012603863 0.0010208846          509    5.7434043    822.77687    1.0501024 
   47200   0.57898441   -7.1995734     0.710653  0.001254684 0.0010206671          511    5.6159075    824.70778    1.0476438 
   47300   0.57321995   -7.2137013   0.71722333  0.001263607 0.0010204552          519    5.3114516      826.677    1.0451482 
   47400    0.5718861   -7.1773004   0.72127061 0.0012680566 0.0010203513          554    6.0962602     819.8782    1.0538151 
   47500   0.58416214   -7.2395721   0.72118952 0.0012652448 0.0010203337          551    5.4265001    824.03999    1.0484928 
   47600   0.53488789   -7.2064224   0.72298743 0.0012657343 0.0010202342          566    5.9391206    819.84418    1.0538588 
   47700   0.57681643   -7.2133855   0.73493359  0.001283951 0.0010203858          595    5.5702573    823.80173    1.0487961 
   47800   0.56346642   -7.2024246    0.7350061 0.0012813914  0.001020528          625    5.8680982    820.92293     1.052474 
   47900   0.56498181   -7.2482191   0.74808133 0.0013014637 0.0010208837          622     5.779533    819.23159    1.0546468 
   48000   0.56208036   -7.2467856   0.75443998 0.0013097916 0.0010214614          622    5.5136098     822.2834    1.0507326 
   48100    0.5797495   -7.2279485   0.75949078 0.0013158191 0.0010220828          621    5.8437075    820.04226    1.0536042 
   48200   0.60838634   -7.2638214   0.76065586 0.0013151035 0.0010227783          635     5.096039     826.2401    1.0457009 
   48300   0.57294227    -7.231765   0.75693015 0.0013059526 0.0010233973          634    6.1196814    816.44192    1.0582504 
   48400   0.55688134   -7.2850607   0.75224479 0.0012951873 0.0010238839          654    5.2019678    823.32841     1.049399 
   48500   0.55745075   -7.2450797   0.75026524 0.0012891155 0.0010242795          655    6.0848643    815.72126    1.0591853 
   48600   0.60492595   -7.2611405   0.75724062 0.0012984236 0.0010246578          665    6.0032252     816.0621     1.058743 
   48700    0.5483338   -7.2551493   0.76419916 0.0013076645 0.0010252093          688    5.8146481    818.55203    1.0555224 
   48800   0.56569256   -7.2531819   0.76148411 0.0013003485 0.0010257411          724    6.0739985    815.79174    1.0590938 
   48900   0.60034173   -7.2876937   0.76313016 0.0013004945 0.0010262031          723    5.4319369    820.98513    1.0523942 
   49000   0.57069726   -7.2953539   0.77524557 0.0013184448 0.0010268167          757    5.4322034    820.17351    1.0534356 
   49100   0.56233297   -7.3197897   0.79101061 0.0013425163 0.0010277279          767    5.5932456    816.82414    1.0577552 
   49200   0.58967838   -7.3340762   0.79367408 0.0013442989 0.0010288329          788    6.2759359    808.73892    1.0683299 
   49300   0.56586071   -7.4064043   0.80806994 0.0013659059 0.0010301074          802    5.4380559    813.82486    1.0616535 
   49400   0.59032801   -7.3881035   0.81805386 0.0013799829 0.0010316264          790     5.652207     812.4567    1.0634413 
   49500   0.58465049   -7.3302103   0.83605559  0.001407501 0.0010334787          790    6.2629288    809.18203    1.0677449 
   49600   0.54961319   -7.4032063   0.84183158 0.0014143676 0.0010354933          780    5.1284238    817.50156    1.0568787 
   49700   0.54997149   -7.3746341   0.84522404   0.00141721 0.0010375595          774    5.9285249    809.93317    1.0667547 
   49800   0.59683091   -7.3987472   0.85269735 0.0014268697 0.0010397282          802    5.4593926    813.65305    1.0618777 
   49900   0.54909776   -7.3698696   0.85331577  0.001425043 0.0010419228          791    5.7899902    811.12994    1.0651808 
   50000   0.57609929   -7.4158286   0.86033552 0.0014338925 0.0010442276          792    5.6484638    810.64525    1.0658176 
   50100    0.5454358   -7.4345192   0.85841943 0.0014278433 0.0010464373          801    5.5691436    809.68287    1.0670844 
   50200   0.55409696   -7.4036847   0.86408133 0.0014343979 0.0010487165          802      5.46167    813.19477    1.0624761 
   50300   0.57424242   -7.4338387   0.86771377 0.0014375642 0.0010509769          818    5.5340483    810.54483    1.0659497 
   50400    0.5798286   -7.4529168    0.8740188 0.0014451369 0.0010533395          820    5.6057271     808.6957     1.068387 
   50500   0.56125811   -7.4702589   0.88404538 0.0014588207 0.0010558332          819    5.6605584    807.05223    1.0705627 
   50600   0.59786491   -7.4324738   0.87907845 0.0014477576 0.0010582792          834    6.0531453    805.64749    1.0724293 
   50700   0.57288164   -7.4435654   0.88763686 0.0014589692 0.0010606782          829    5.6250535    809.01967    1.0679592 
   50800   0.53678774   -7.4221081   0.88998659 0.0014599517 0.0010631822          820    5.8807223    806.96537    1.0706779 
   50900   0.58113542   -7.4383689   0.90009592 0.0014736344  0.001065748          829    5.5445148    810.19542    1.0664094 
   51000   0.56581469   -7.4455817   0.91119235 0.0014888764 0.0010685107          844    5.6098389    808.85967    1.0681704 
   51100   0.54591765   -7.4352084   0.92001937 0.0015003577 0.0010714009          837    5.6562443    808.99666    1.0679896 
   51200   0.56281819   -7.4632206   0.91544413 0.0014899807 0.0010741978          836    5.3405142    810.82778    1.0655777 
   51300   0.59197606   -7.4658658   0.92564788 0.0015036515 0.0010771593          835    6.0556711    803.13468    1.0757847 
   51400   0.56069223   -7.4894172   0.93004555 0.0015078559 0.0010801541          832    5.4505598    808.24253    1.0689861 
   51500   0.57132226   -7.4714652   0.92792458 0.0015014961 0.0010830939          828    5.6066535    807.96141     1.069358 
   51600   0.57025208    -7.459911   0.93431379 0.0015089047 0.0010860325          841    5.6290271    808.27614    1.0689416 
   51700   0.54601799    -7.507654   0.93603679 0.0015087634 0.0010889666          835    5.3777854    807.94618    1.0693782 
   51800   0.59477104   -7.5006742   0.93602592 0.0015058332 0.0010918858          838    5.7814197    804.56193    1.0738763 
   51900   0.60631071   -7.4836275   0.94413213 0.0015159475 0.0010948693          836    5.4966943    809.24196    1.0676658 
   52000   0.57232383   -7.4899326   0.95047568 0.0015231982 0.0010978439          840    5.7000871    805.85163    1.0721577 
   52100   0.57625689   -7.5199881    0.9368285 0.0014984461 0.0011006973          840    5.7324219      803.802    1.0748916 
   52200   0.59004606   -7.4979976   0.94695538 0.0015117423 0.0011034608          825     5.684692    805.68031    1.0723856 
   52300   0.58027781   -7.4684092   0.93798413 0.0014945572 0.0011061763          832    5.7178523    806.85832      1.07082 
   52400   0.57910818   -7.5336404   0.94462456 0.0015022655 0.0011087846          836    5.4298874    805.93375    1.0720484 
   52500    0.5345115    -7.473313   0.95028935 0.0015083958 0.0011115222          834    5.9935733    802.82962    1.0761935 
   52600   0.58938686   -7.5260264   0.95400063 0.0015114078 0.0011142392          842    5.5228937    805.56543    1.0725386 
   52700   0.56637362   -7.5139994   0.94747691 0.0014982241 0.0011169138          841    5.9811181     801.3536    1.0781757 
   52800   0.56080325   -7.6042496   0.94323921 0.0014886982  0.001119411          840    5.1660202    804.49611    1.0739642 
   52900   0.55466936   -7.5621298    0.9482448 0.0014937694 0.0011218206          842    6.4589632    793.33813     1.089069 
   53000   0.57708538   -7.5584958   0.95758865 0.0015056425 0.0011243392          849    5.4267247    804.60113     1.073824 
   53100   0.56555788   -7.5113401   0.97951975 0.0015372249 0.0011271435          848    5.6783433    804.81756    1.0735352 
   53200   0.59356887   -7.5107463   0.97639932 0.0015294475 0.0011300861          849    5.6384345    805.44569     1.072698 
   53300    0.5571623   -7.5240586   0.97652731 0.0015267781 0.0011328551          842    5.5525321    805.24175    1.0729697 
   53400   0.54793085   -7.5481918   0.97698108 0.0015246271 0.0011356197          836    5.5487874     804.1472    1.0744301 
   53500   0.59075224   -7.5080413   0.96832637 0.0015082965  0.001138262          844    5.8934952     803.2549    1.0756237 
   53600   0.57062039   -7.5084743   0.96947841 0.0015072736 0.0011406976          841    5.7785782    803.38876    1.0754445 
   53700   0.55455666   -7.5384729   0.97077534 0.0015064794  0.001143195          835     5.640462      803.305    1.0755566 
   53800   0.59533253   -7.5443437   0.96351435 0.0014924324 0.0011455102          846      5.76087    802.34499    1.0768435 
   53900   0.59413665   -7.5599078   0.96747099 0.0014957807 0.0011477737          841    5.4134889    805.36935    1.0727997 
   54000    0.5424362   -7.5301898   0.98182468 0.0015151615 0.0011501824          842    5.7246078    803.41595    1.0754081 
   54100   0.57593963   -7.5015201   0.98030419 0.0015100188 0.0011526692          845    6.0542248      801.385    1.0781335 
   54200   0.56608044   -7.5173929   0.97546849 0.0014997978 0.0011549706          841    5.5392256    805.88967    1.0721071 
   54300   0.56209839   -7.5386932   0.97844912   0.00150161 0.0011571771          835    5.8434273    801.44715    1.0780499 
   54400   0.56627106   -7.5579115   0.97179154 0.0014886512 0.0011593525          839     5.635524    802.24081    1.0769834 
   54500   0.57992943   -7.5392317   0.96956099 0.0014825091 0.0011613363          837    5.7463772    802.54972    1.0765688 
   54600   0.57783278   -7.5362148   0.97398148 0.0014865407 0.0011633781          838    5.4832603    805.06676    1.0732029 
   54700   0.58744201   -7.5247108   0.97317581 0.0014825957 0.0011653053          842    5.6958833     803.9987    1.0746286 
   54800   0.55981984   -7.5673433   0.98646136 0.0015000933 0.0011673964          842    5.2138558     806.3804    1.0714546 
   54900   0.55157366   -7.5151625   0.98049672 0.0014883071  0.001169504          843    5.8041938    802.85799    1.0761554 
   55000   0.56558605   -7.4878615   0.97861152 0.0014827447 0.0011714393          834    5.6393623    806.43112    1.0713872 
   55100    0.5520845   -7.5259256   0.97774611 0.0014787449 0.0011733219          842    5.6874799    803.38865    1.0754446 
   55200   0.53964725   -7.4969127   0.98268401 0.0014835205 0.0011751162          831    5.7170167    804.57806    1.0738548 
[...]
   89500   0.54343716   -7.5971694    1.1660597 0.0010857166 0.0010388962          862    6.0038112     795.1712    1.0865585 
   89600   0.55406715   -7.5925825    1.1648642 0.0010833931 0.0010381654          864    5.6266869    799.31065    1.0809314 
   89700   0.55833192   -7.5987863    1.1600741 0.0010777352   0.00103739          864    5.1837493    803.81374    1.0748759 
   89800   0.57306787   -7.5816241    1.1510941 0.0010682017 0.0010365587          863    5.8478942    797.87104    1.0828818 
   89900   0.57378541   -7.6376418    1.1499324 0.0010659366 0.0010357026          864    5.6100784    796.95536     1.084126 
   90000   0.56596136   -7.5804169    1.1434402 0.0010587409 0.0010348216          859     5.964662    796.75367    1.0844004 
   90100   0.57664815   -7.6078605    1.1376804 0.0010522386 0.0010339007          861    5.1143536     804.4888    1.0739739 
   90200    0.5811436   -7.6061278     1.133457 0.0010471701 0.0010329362          863    6.0591186    794.42719    1.0875761 
   90300   0.53633799   -7.6489689    1.1340179 0.0010465282 0.0010319518          862    5.5804349     796.3166    1.0849956 
   90400   0.54633774    -7.610857    1.1420151 0.0010527425 0.0010309901          864    5.4948197    799.72491    1.0803715 
   90500   0.58028024   -7.5771686    1.1420821 0.0010516409 0.0010300763          862    5.9461209    797.29041    1.0836704 
   90600   0.54828134   -7.6023855    1.1447592 0.0010529426 0.0010291729          862    5.6427072    798.45587    1.0820886 
   90700   0.55771126   -7.6096759    1.1415475 0.0010488309 0.0010282704          863    5.6748539    797.84004    1.0829238 
   90800   0.59367413   -7.5683538    1.1420041 0.0010480948 0.0010273615          863    5.8989759    798.59354    1.0819021 
   90900   0.57394069   -7.6018605    1.1300013 0.0010359381 0.0010263806          860    5.5117003    800.29598    1.0796006 
   91000    0.5466823    -7.569484    1.1422012 0.0010459718 0.0010253918          861    5.9394482    797.18879    1.0838085 
   91100   0.56915116   -7.5515993    1.1605788 0.0010616345 0.0010245221          858     5.821117    800.05131    1.0799307 
   91200   0.55354443   -7.5857542    1.1659542 0.0010653821 0.0010237284          861    5.2477345    804.08369     1.074515 
   91300   0.56697366   -7.5743576     1.162941 0.0010614649 0.0010229118          860     6.295566    793.77262    1.0884729 
   91400   0.56028476   -7.6089444    1.1575352 0.0010553749 0.0010221046          862     5.342147    801.59547    1.0778504 
   91500   0.54863626   -7.6130933    1.1513996 0.0010486335 0.0010212193          861    5.1708622    802.94141    1.0760436 
   91600   0.59311199    -7.590945    1.1425529 0.0010394404 0.0010202962          862    5.8889696     797.2113    1.0837779 
   91700   0.56524289   -7.5747605    1.1423954 0.0010381637 0.0010193655          862    5.7762756    799.20391    1.0810758 
   91800   0.54833317   -7.5903833    1.1441753 0.0010386486 0.0010184382          862     5.743678      798.038    1.0826552 
   91900   0.55968189   -7.5928063    1.1280963 0.0010229382 0.0010174419          860     5.475319    800.53718    1.0792753 
   92000   0.58304034   -7.5524052    1.1453528 0.0010374572 0.0010164598          860    5.6830659    801.56801    1.0778873 
   92100   0.59242611    -7.605307    1.1256824 0.0010185327 0.0010154669          859    5.8591854     796.6602    1.0845276 
   92200   0.56741579   -7.6222094    1.1259699 0.0010176879 0.0010144127          859    5.6856745    796.90533     1.084194 
   92300    0.5784028   -7.6052431    1.1404308 0.0010296413 0.0010134006          861    5.2731933    802.58339    1.0765237 
   92400   0.56347312   -7.5691742    1.1342881 0.0010229871 0.0010124354          860    6.1796267    794.95681    1.0868515 
   92500   0.57024097   -7.6243621    1.1403355 0.0010273293 0.0010114418          860    5.4328139    799.49256    1.0806855 
   92600   0.58377857   -7.5789229    1.1344041  0.001020882 0.0010104509          860    5.8302183    798.20844     1.082424 
   92700   0.55824841    -7.590347     1.137847 0.0010228758 0.0010094655          859    5.8777818     796.8773    1.0842322 
   92800   0.54779487   -7.6197236    1.1298346 0.0010145785 0.0010084464          862    5.2206689     802.1741    1.0770729 
   92900   0.56789893   -7.5442423    1.1187786 0.0010035689  0.001007356          863    6.3930505    794.09804    1.0880269 
   93000   0.55993267    -7.625542    1.1179569 0.0010017535 0.0010062636          862     5.178791    802.25328    1.0769666 
   93100   0.56708983   -7.6159783    1.1154723 0.00099845352 0.0010051436          861    5.7502595    796.78567    1.0843568 
   93200   0.58215541   -7.5990624    1.1221857 0.0010033849 0.0010040164          860    5.1643703    804.20288    1.0743558 
   93300   0.57461328   -7.5871184    1.1136044 0.0009946449 0.0010029134          860     5.975222    796.17186    1.0851928 
   93400   0.57916415   -7.6041569    1.1146451 0.0009945085 0.0010017809          862    5.9001579    796.05519    1.0853519 
   93500   0.58931378   -7.6178416    1.1162185 0.00099484712 0.0010006475          863    5.4187899    800.45991    1.0793795 
   93600   0.54469412    -7.623496    1.1252481 0.0010018235 0.00099956129          864    5.5568867    798.09854    1.0825731 
   93700   0.54477427   -7.5989447    1.1288498 0.0010039575 0.00099851334          863    5.7302695    797.65522    1.0831748 
   93800   0.57700211   -7.6139257    1.1372784 0.0010103753 0.00099749002          861    5.1100263    803.73104    1.0749865 
   93900   0.58094953   -7.5978554    1.1397556 0.0010114976 0.00099649146          861    5.9365389    796.00962     1.085414 
   94000   0.55482729   -7.6149115    1.1412485 0.0010117451 0.00099551464          860    5.6679039    797.43438    1.0834747 
   94100   0.57147325   -7.5724608    1.1487369 0.0010173015 0.00099458205          861    5.7335898    799.61082    1.0805256 
   94200   0.57523044   -7.5801562    1.1348249 0.0010039145 0.00099362422          863    5.9913051    796.52669    1.0847094 
   94300   0.56506956    -7.639421     1.130328 0.00099887594 0.00099259606          861    5.5450146    797.50031    1.0833852 
   94400   0.56724671    -7.578546    1.1169143 0.00098597664 0.00099151949          861    5.7927267    798.30476    1.0822934 
   94500   0.56811219   -7.5925592    1.1200777 0.00098772283 0.00099041429          862    5.6326714    799.53241    1.0806316 
   94600   0.55423527   -7.6574526     1.124734 0.00099078045 0.00098930378          862     5.405388    797.81085    1.0829635 
   94700   0.54889715   -7.5856651    1.1362981 0.00099991031 0.00098825495          864    6.0147823    795.64131    1.0859165 
   94800   0.55888987   -7.6072292    1.1421695 0.0010040168 0.0009872783          862     5.380301    801.22201    1.0783528 
   94900   0.56007013   -7.5767393    1.1300458 0.00099231278 0.00098626311          860    5.7560489    798.84719    1.0815585 
   95000   0.58921474   -7.5847924    1.1225595 0.00098470128 0.00098520657          863    6.0501899    795.77427     1.085735 
   95100   0.57459168   -7.6508905     1.113367 0.00097561077 0.00098408607          861    5.3778332    798.68099    1.0817836 
   95200   0.56912647    -7.617565    1.1078413 0.00096974902 0.0009829428          859    5.8568231    795.36068    1.0862996 
   95300   0.58112218   -7.6046662    1.0971752 0.00095940468 0.0009817284          860    5.6763028    798.55383    1.0819559 
   95400   0.56511495   -7.6086849    1.1041873 0.00096452421 0.00098051971          864    5.5251881    799.54175     1.080619 
   95500   0.55804822   -7.6063629    1.0906873 0.0009517341 0.00097926081          861    5.6385701    798.46262    1.0820795 
   95600   0.56355319   -7.5686802    1.1035149 0.00096192025 0.00097803882          860    5.7298658    799.63692    1.0804904 
   95700   0.57321476   -7.5973974    1.1014252 0.00095909545 0.00097685238          858    5.8693098    796.69492    1.0844804 
   95800   0.56416003    -7.609882    1.0973006 0.00095450641 0.00097563464          858    5.8030411    796.45491    1.0848072 
   95900   0.56142584   -7.5722557    1.0977415 0.00095389424 0.00097438947          862    5.8815848    797.94564    1.0827805 
   96000   0.58202412   -7.5994139    1.0994677  0.000954399 0.00097317278          863    5.4614094    800.84768    1.0788568 
   96100   0.53868947   -7.6024905    1.0942258 0.00094886038 0.00097193128          861    5.8434769    796.20612    1.0851461 
   96200   0.57748861   -7.6266303    1.0945297 0.00094813729 0.0009706864          861    5.2660693    801.34138    1.0781922 
   96300   0.58786771   -7.5866807    1.0977109 0.00094990559 0.00096944934          863    6.0937824     795.0609    1.0867092 
   96400   0.56247377   -7.6127817    1.1072009 0.00095712386 0.00096825097          860    5.6211965    798.19971    1.0824359 
   96500   0.55725902   -7.6223732    1.1069125  0.000955883 0.0009670927          861    5.4715398     799.3127    1.0809286 
   96600   0.57899404   -7.5709637     1.102516 0.00095110076 0.00096589967          859    5.8941947    797.94123    1.0827865 
   96700   0.56078538   -7.6163247    1.1076639 0.00095455352 0.0009647238          861    5.4975475    799.49252    1.0806855 
   96800   0.56486707   -7.5953378    1.0960864 0.00094360054 0.00096352578          862     5.837891    797.00429    1.0840594 
   96900   0.57839876    -7.597798    1.1060921 0.0009512316 0.00096232594          864    5.6812251    798.82436    1.0815894 
   97000   0.56311841   -7.6019216    1.1040933 0.00094853376 0.00096116706          862    5.5915859    799.09342    1.0812253 
   97100   0.53417499   -7.6146113    1.1015689 0.00094539041 0.00095995983          862    5.8996166    794.83031    1.0870245 
   97200   0.56612041   -7.6312305     1.106556 0.00094869345 0.00095878797          863    5.6155561    797.39156    1.0835329 
   97300   0.58236676   -7.5999212    1.1152489 0.0009551635 0.00095765368          862     5.705199    798.43447    1.0821176 
   97400   0.56951669   -7.6063076    1.1221438 0.00096008199 0.00095655295          860    5.5663346    799.21374    1.0810625 
   97500   0.54611258   -7.6080976    1.1128844 0.00095118326 0.00095546296          863    5.9522978     794.7667    1.0871115 
   97600   0.55218132   -7.5981302    1.1221104 0.00095808606 0.00095435633          861    5.4077475    801.27013     1.078288 
   97700   0.57513234   -7.5721654    1.1258074 0.00096025875 0.00095330114          860    5.9475288    797.27624    1.0836896 
   97800    0.5652822   -7.6170452    1.1228183   0.00095673 0.00095223367          862    5.7690516    796.37992    1.0849093 
   97900   0.55944319   -7.6274248    1.1256056 0.00095812528 0.00095117729          862    5.4758911    798.80701    1.0816129 
   98000    0.5909398   -7.6210641    1.1139126 0.00094720457 0.00095007966          864    5.6076459    798.17032    1.0824757 
   98100   0.56117702   -7.6110705    1.1091118 0.0009421609 0.00094894929          864    6.0731005    793.70709    1.0885628 
   98200    0.5610899   -7.6287509    1.1126332 0.00094418973 0.00094782942          863    5.7712536    795.63623    1.0859234 
   98300   0.56079974   -7.5665331    1.1154614 0.00094562681 0.00094671587          858    5.9667936    797.75651    1.0830372 
   98400    0.5633112   -7.5973384    1.1171674 0.00094611063 0.00094560262          861     5.145657    804.07793    1.0745227 
   98500   0.57062248   -7.6299401    1.1135598 0.00094209799 0.0009445021          860    6.1829765    791.55646    1.0915204 
   98600   0.58212449   -7.6310725    1.1076111 0.00093611486 0.00094338416          861    5.6614255    797.07522    1.0839629 
   98700   0.58324815   -7.6045003    1.1128193 0.00093956371 0.00094226733          862    5.5066183    800.29174    1.0796063 
   98800   0.55993769   -7.5940255    1.1024694 0.0009298831 0.00094110105          861    5.9471621    795.79591    1.0857055 
   98900    0.5915137   -7.6228283    1.1080843 0.00093367403 0.00093995444          859    5.5814566    798.18971    1.0824494 
   99000   0.58955128   -7.5935049    1.1047284 0.00092990604 0.00093879453          860     5.509152    800.76542    1.0789677 
   99100   0.57338586       -7.608    1.1041077 0.00092844575 0.00093764859          861    6.1972985    792.65159    1.0900123 
   99200    0.5795106   -7.6165256    1.0954314 0.00092022125 0.00093645121          864    5.4525267    799.97738    1.0800305 
   99300   0.57269435   -7.5850683    1.1075526 0.00092946677 0.00093527288          862    5.9402071    796.53248    1.0847015 
   99400   0.57395184   -7.6089373    1.1044949 0.00092596822 0.00093411336          862     5.541271    799.47632    1.0807074 
   99500   0.56972515   -7.5867199    1.1099719 0.00092962472 0.00093296353          860    5.6600735    799.66936    1.0804465 
   99600   0.56497989    -7.590491    1.1119727 0.00093036536 0.00093186459          862    5.6637006    799.22981    1.0810408 
   99700   0.55211498   -7.6346227    1.1005212 0.00091986058 0.0009307279          860     5.451528    798.61291    1.0818758 
   99800    0.5916665   -7.6459436    1.0979139 0.00091676177 0.00092953467          862    5.7656452     795.0713     1.086695 
   99900   0.59199414   -7.5886689    1.0988389 0.00091661567 0.00092834833          859    5.9576768    796.52971    1.0847053 
  100000   0.55074384   -7.5838358    1.1173713 0.00093114274 0.00092722864          863    5.9070522    796.77207    1.0843754 
  100100   0.53877444   -7.6204187    1.1266695 0.00093795332 0.00092617876          862    5.6709241     797.2316    1.0837503 
  100200   0.55770728   -7.5909618    1.1351494 0.00094406967 0.00092518174          863    5.5050612    800.45052    1.0793921 
  100300   0.56948116   -7.6073323    1.1268452  0.000936229 0.00092414664          859    5.4681392    800.22541    1.0796958 
  100400   0.58937984   -7.6299119    1.1188443 0.00092865562 0.00092309279          862    5.7831574    796.18325    1.0851773 
  100500   0.55808627   -7.6067871    1.1186523 0.00092757239 0.00092202396          863    5.9855465    794.89195    1.0869402 
  100600   0.56612161   -7.5989387    1.1147959 0.00092345587 0.00092093898          863    5.4659235    800.68451    1.0790767 
  100700   0.56008762    -7.520712    1.1249879 0.00093097311 0.00091987879          863    6.0258039    799.46509    1.0807226 
  100800   0.58157626   -7.6076874    1.1272846 0.00093194825 0.00091885442          863    5.5482879    799.48426    1.0806967 
  100900   0.56792576   -7.6190564    1.1260374 0.00092999453 0.00091782839          863     5.737231    797.01496    1.0840449 
  101000   0.55744371   -7.5651466     1.119241 0.00092346618 0.00091678737          862    5.6675908    800.60009    1.0791905 
  101100   0.57787904   -7.6021048    1.1272493 0.00092915374 0.00091573124          863    5.2916692    802.54582     1.076574 
  101200   0.55976528   -7.5788195    1.1250234 0.00092640267 0.00091471547          862    6.3146733    792.98567    1.0895531 
  101300   0.57601754   -7.5965045    1.1212416 0.00092237713 0.00091367967          862    5.6826767    798.58777    1.0819099 
  101400   0.53672655   -7.6040811    1.1296363 0.00092836649 0.00091264331          862    5.2496354    802.20486    1.0770316 
  101500   0.56378215   -7.5897372    1.1272424 0.00092548636 0.00091163127          863    6.0698086    794.86237    1.0869806 
  101600   0.56076853   -7.5944403     1.126782 0.00092419786 0.0009106138          864    5.4630367    801.08979    1.0785308 
  101700   0.56818457   -7.6149398     1.116765 0.00091508108 0.00090954869          863    5.5040907    799.53449    1.0806288 
  101800   0.58836392   -7.6277349    1.1155284 0.00091316997 0.00090848433          862    5.8151121    795.67328    1.0858728 
  101900   0.60654619   -7.6059876    1.1215572 0.00091720411 0.00090742672          861    5.5992867    799.56598    1.0805863 
  102000   0.57287313   -7.5993768    1.1330987 0.00092573421 0.00090642537          862    5.6287947    799.15457    1.0811425 
  102100   0.59185147   -7.6483203    1.1410755 0.00093133818 0.00090544664          862    5.2717159    800.18744     1.079747 
  102200   0.59611227   -7.6081822    1.1356461 0.00092599979 0.00090450175          862    6.0376412    794.71677    1.0871798 
  102300   0.57672046   -7.6189762    1.1466351 0.0009340462 0.00090356774          862    5.5374395    798.99389      1.08136 
  102400   0.56417522   -7.5957349    1.1497489 0.00093566806 0.00090266874          859    5.9422063    795.65319    1.0859003 
  102500   0.56461669   -7.5916121    1.1406135 0.00092732802 0.00090173714          860     5.318401    802.58073    1.0765272 
  102600   0.56160059   -7.5899158    1.1364333 0.00092302902 0.00090076428          864    5.6875926    798.94478    1.0814264 
  102700   0.56221781   -7.6238921    1.1318569 0.00091841682 0.00089979366          860    5.5844069    798.19694    1.0824396 
  102800   0.60249958    -7.572773    1.1323775 0.00091794546 0.00089879204          861    6.0688741    796.29635    1.0850232 
  102900   0.57031303   -7.5812836    1.1557428 0.00093597571 0.00089788281          859    5.3093044    803.68917    1.0750425 
  103000   0.57876635   -7.6173237    1.1355108 0.00091869805 0.00089696926          863    5.8548982    795.66407    1.0858854 
  103100   0.57635784   -7.5984682    1.1254843 0.0009097028 0.0008959864          864    5.9869247    795.67831     1.085866 
  103200   0.53580744   -7.5695234    1.1379134 0.0009188577 0.00089497911          864    5.6093002    800.51155    1.0793099 
  103300   0.59467833   -7.5956675    1.1356798 0.00091616631 0.00089402649          862    5.8010731    798.06527    1.0826182 
  103400   0.57503753   -7.6388638    1.1329997 0.00091312033 0.00089303056          864    5.5295892     797.7461    1.0830514 
  103500   0.55843641   -7.6013684    1.1338252 0.0009129027 0.00089206067          860    5.8308444    796.85291    1.0842653 
  103600   0.54952489   -7.5893548    1.1387225 0.00091596084 0.0008910894          858    5.3555529    802.57336    1.0765371 
  103700   0.56215633   -7.6381577    1.1389285 0.00091524306 0.00089013823          862    4.9924523    803.19479    1.0757042 
  103800   0.55555484   -7.6302976    1.1256556 0.00090370551 0.00088914013          864    6.0511457      792.836    1.0897588 
  103900   0.55907695   -7.6240921    1.1257018 0.0009028728 0.00088813667          861    5.3900107    800.08595     1.079884 
  104000    0.5716529   -7.5965544    1.1221384 0.00089914936 0.00088710612          861    5.6438692    799.04761    1.0812873 
Loop time of 194.625 on 12 procs for 100000 steps with 864 atoms

Performance: 88785.948 tau/day, 513.808 timesteps/s
99.4% CPU use with 12 MPI tasks x no OpenMP threads

MPI task timing breakdown:
Section |  min time  |  avg time  |  max time  |%varavg| %total
---------------------------------------------------------------
Pair    | 10.222     | 11.086     | 11.805     |  14.2 |  5.70
Neigh   | 0.92892    | 0.96559    | 0.99231    |   1.7 |  0.50
Comm    | 7.2871     | 8.1603     | 9.1442     |  18.9 |  4.19
Output  | 2.3909     | 2.3918     | 2.3992     |   0.1 |  1.23
Modify  | 169.24     | 169.83     | 170.48     |   3.0 | 87.26
Other   |            | 2.196      |            |       |  1.13

Nlocal:        72.0000 ave          75 max          68 min
Histogram: 1 2 0 0 1 2 0 3 1 2
Nghost:        1662.92 ave        1675 max        1649 min
Histogram: 2 1 0 1 3 0 0 1 2 2
Neighs:        8989.58 ave        9987 max        8175 min
Histogram: 4 0 1 0 2 1 1 0 2 1
FullNghs:      17978.8 ave       18797 max       16941 min
Histogram: 1 2 0 0 1 2 2 1 1 2

Total # of neighbors = 215745
Ave neighs/atom = 249.70486
Neighbor list builds = 4172
Dangerous builds = 0

#clear
#
#next RN
#
#jump SELF



Total wall time: 0:03:15
