
units lj                  # Use reduced LJ style units
atom_style atomic         # Uncharged point particles
atom_modify map hash      # Needed for indexing of clusters etc
                          # Used to be able to find where atoms are in relation to each other.

# Define a lattice with which to populate the simulation cell. With units
# set to 'lj' the second argument to the lattice command is the reduced
# density rho* and the spacings are multiples of that required to acheive
# that density. Also define a simulation cell called 'box' in lattice units
# and fill it with atoms. Here we're creating a box which is ten lattice
# constants in each direction.
lattice fcc 1.0 spacing 1 1 1                 # All equal sizes - gives the right reduced density.
Lattice spacing in x,y,z = 1.5874011 1.5874011 1.5874011

region box block 0 6 0 6 0 6 units lattice # Defines a region, "box", in lattice units
create_box 1 box                              # Creates a simulation box as specified above,
Created orthogonal box = (0.0000000 0.0000000 0.0000000) to (9.5244063 9.5244063 9.5244063)
  2 by 2 by 3 MPI processor grid
                                              # with one type of atom
create_atoms 1 box                            # Creates particles on lattice points
Created 864 atoms
  using lattice units in orthogonal box = (0.0000000 0.0000000 0.0000000) to (9.5244063 9.5244063 9.5244063)
  create_atoms CPU = 0.001 seconds


# Set the mass of the first (and only) atom type.
mass 1 1.0

# Lennard-Jones interactions between particles, 3.5 sigma cut-off. Apply
# long range tail corrections to energy and pressure and set all coefficients
# to unity since we work in reduced units here. Note that this doesn't shift
# the potential such that it goes to zero at the cutoff. That would require
# pair_modify('shift', 'yes').
pair_style lj/cut  3.5      # non-GPU version
pair_modify tail  yes
pair_coeff 1  1  1.0  1.0   # Intearaction between 1 and 1 set with epsilon = 1 and sigma = 1

write_data data.*
System init for write_data ...
Neighbor list info ...
  update every 1 steps, delay 10 steps, check yes
  max neighbors/atom: 2000, page size: 100000
  master list distance cutoff = 3.8
  ghost atom cutoff = 3.8
  binsize = 1.9, bins = 6 6 6
  1 neighbor lists, perpetual/occasional/extra = 1 0 0
  (1) pair lj/cut, perpetual
      attributes: half, newton on
      pair build: half/bin/atomonly/newton
      stencil: half/bin/3d
      bin: standard

#############################
#   M E L T   S Y S T E M   #
#############################

velocity all create 2.4 2750902 mom yes dist gaussian # Assign velocities
                                                    # Temperature 2.4, random number seed, zero linear momentum
						                                                        # Gaussian distribution

timestep 0.002   # simulation timestep
thermo 100       # output thermodynamic data every 100 steps

# Define a fix  in this case with index 1 applied to all
# particles in the simulation. This fix is for simulations
# in the anisotropic NPT ensemble. Note that we use the MTK
# correction.
fix 1 all npt temp 2.4 2.4 0.1 iso 5.68 5.68 0.5 mtk yes tchain 5 pchain 5 # Use NPT ensemble
                                                                         # Set temperature and pressure and damping
                                                                         # Numbers of thermostats in chain and in barostat
run 1000         # run for 10000 steps
Per MPI rank memory allocation (min/avg/max) = 3.633 | 3.633 | 3.634 Mbytes
Step Temp E_pair E_mol TotEng Press Volume 
       0          2.4   -8.3859253            0    -4.790092     -2.24275          864 
     100    1.3007594   -6.4407842            0   -4.4919034    5.3582762    891.69205 
     200    1.5828213   -6.0796178            0   -3.7081338    6.4338598    907.46239 
     300    1.7629056     -5.73851            0   -3.0972122    5.5953229    954.02439 
     400    1.8733232   -5.2785237            0   -2.4717912    6.0585808    994.36537 
     500      2.02574   -4.9360708            0   -1.9009777    5.7478153    1042.8978 
     600    2.2112838   -4.6895875            0   -1.3765009    5.7138268    1079.0368 
     700    2.3146746   -4.4629638            0  -0.99497044    5.6088298    1118.0222 
     800    2.4734008     -4.39503            0   -0.6892229    5.7937797    1123.7282 
     900    2.4206618   -4.2767239            0  -0.64993368    5.5531987    1146.9555 
    1000    2.3618098   -4.2459295            0  -0.70731524    5.7000582    1143.3852 
Loop time of 0.208068 on 12 procs for 1000 steps with 864 atoms

Performance: 830499.295 tau/day, 4806.130 timesteps/s
99.8% CPU use with 12 MPI tasks x no OpenMP threads

MPI task timing breakdown:
Section |  min time  |  avg time  |  max time  |%varavg| %total
---------------------------------------------------------------
Pair    | 0.07119    | 0.081214   | 0.11732    |   5.4 | 39.03
Neigh   | 0.012179   | 0.01346    | 0.017358   |   1.5 |  6.47
Comm    | 0.055184   | 0.095515   | 0.10686    |   5.6 | 45.91
Output  | 0.00019867 | 0.00020749 | 0.00027288 |   0.0 |  0.10
Modify  | 0.015161   | 0.015983   | 0.016593   |   0.3 |  7.68
Other   |            | 0.001688   |            |       |  0.81

Nlocal:        72.0000 ave          80 max          66 min
Histogram: 2 1 2 2 1 0 2 0 0 2
Nghost:        1314.75 ave        1327 max        1295 min
Histogram: 1 0 0 2 3 0 0 1 2 3
Neighs:        6211.67 ave        7136 max        5326 min
Histogram: 2 0 0 2 1 4 1 0 0 2

Total # of neighbors = 74540
Ave neighs/atom = 86.273148
Neighbor list builds = 80
Dangerous builds = 2

# Equilibrate just above the melting temperature to avoid step fn in T

fix 1 all npt temp 1.25 1.25 0.1 iso 5.68 5.68 0.5 mtk yes tchain 5 pchain 5
run 1000
Per MPI rank memory allocation (min/avg/max) = 3.634 | 3.634 | 3.634 Mbytes
Step Temp E_pair E_mol TotEng Press Volume 
    1000    2.3618098   -4.2459295            0  -0.70731524    5.7000582    1143.3852 
    1100    1.8617945   -4.5967525            0    -1.807293    5.9593679    1083.5566 
    1200      1.66126   -5.0091582            0   -2.5201524    5.9308167    1028.0056 
    1300    1.4533368   -5.3154554            0   -3.1379734    5.5185254    997.93023 
    1400    1.3100587   -5.5224566            0    -3.559643    5.2858775     978.0358 
    1500    1.3306301   -5.7450087            0   -3.7513736    5.2687861    956.68836 
    1600    1.2302857    -5.777427            0   -3.9341343     5.385203    950.58576 
    1700    1.2545134   -5.8251615            0   -3.9455694    5.6370291    940.07281 
    1800    1.2669685   -5.8434457            0   -3.9451925    6.1076728    931.13358 
    1900    1.2975362   -5.8185374            0   -3.8744858    5.5765884    942.23221 
    2000    1.2225624   -5.8503078            0   -4.0185867    5.1330896    948.19804 
Loop time of 0.162293 on 12 procs for 1000 steps with 864 atoms

Performance: 1064740.275 tau/day, 6161.691 timesteps/s
99.9% CPU use with 12 MPI tasks x no OpenMP threads

MPI task timing breakdown:
Section |  min time  |  avg time  |  max time  |%varavg| %total
---------------------------------------------------------------
Pair    | 0.071051   | 0.077203   | 0.08403    |   1.3 | 47.57
Neigh   | 0.0098803  | 0.010672   | 0.011355   |   0.4 |  6.58
Comm    | 0.05109    | 0.058328   | 0.065336   |   1.7 | 35.94
Output  | 0.00018059 | 0.0001878  | 0.00023696 |   0.0 |  0.12
Modify  | 0.013887   | 0.014095   | 0.014442   |   0.1 |  8.68
Other   |            | 0.001807   |            |       |  1.11

Nlocal:        72.0000 ave          79 max          65 min
Histogram: 1 1 0 4 0 1 1 3 0 1
Nghost:        1466.08 ave        1476 max        1447 min
Histogram: 1 1 0 0 2 0 0 4 1 3
Neighs:        7466.67 ave        8131 max        6694 min
Histogram: 1 0 2 0 3 1 3 0 0 2

Total # of neighbors = 89600
Ave neighs/atom = 103.70370
Neighbor list builds = 67
Dangerous builds = 0


# Small amount of linear quench

fix 1 all npt temp 1.25 ${temp} 0.1 iso 5.68 5.68 0.5 mtk yes tchain 5 pchain 5
fix 1 all npt temp 1.25 0.73 0.1 iso 5.68 5.68 0.5 mtk yes tchain 5 pchain 5
run 2000
Per MPI rank memory allocation (min/avg/max) = 3.634 | 3.634 | 3.634 Mbytes
Step Temp E_pair E_mol TotEng Press Volume 
    2000    1.2225624   -5.8503078            0   -4.0185867    5.1330896    948.19804 
    2100     1.243777   -5.8663414            0   -4.0028353    5.4019359    941.12412 
    2200    1.2168523   -5.9145281            0   -4.0913622    5.7682988    929.20449 
    2300    1.1744828   -5.9302604            0   -4.1705753    6.3151437    918.07652 
    2400    1.1663872   -5.9940186            0   -4.2464627    5.9147646    919.24507 
    2500    1.1070529    -6.004524            0   -4.3458666      5.84982    917.43243 
    2600    1.0908835   -6.0557555            0   -4.4213241    5.5544506    918.14742 
    2700     1.055155   -6.1165634            0   -4.5356628     5.560885     913.0907 
    2800     1.060705   -6.1819164            0   -4.5927004    5.4409636    909.86461 
    2900    1.0013451   -6.1886542            0   -4.6883751      5.70067    903.46269 
    3000    0.9972754   -6.2433594            0   -4.7491776    5.4025656    903.39452 
    3100   0.94340497   -6.2765837            0   -4.8631141    5.4455218    900.14845 
    3200   0.95146816   -6.3060804            0     -4.88053    5.3426186    900.10558 
    3300   0.93326519   -6.3427282            0   -4.9444507      5.75114    889.36753 
    3400   0.93288427    -6.378327            0   -4.9806202    6.0194531    882.31646 
    3500   0.89734746   -6.4458829            0   -5.1014196    5.7523648    880.85677 
    3600   0.83308407   -6.4705165            0   -5.2223367    5.4223882    882.78346 
    3700   0.79871301   -6.5074838            0    -5.310801    5.2797257    881.45726 
    3800   0.78479691   -6.5764381            0   -5.4006052    5.2185162    876.80793 
    3900   0.77863828   -6.6094109            0   -5.4428053    5.4178882    870.98894 
    4000   0.76907815   -6.6218412            0   -5.4695591    5.8967818    862.98299 
Loop time of 0.341427 on 12 procs for 2000 steps with 864 atoms

Performance: 1012221.091 tau/day, 5857.761 timesteps/s
99.9% CPU use with 12 MPI tasks x no OpenMP threads

MPI task timing breakdown:
Section |  min time  |  avg time  |  max time  |%varavg| %total
---------------------------------------------------------------
Pair    | 0.15827    | 0.16891    | 0.17978    |   1.7 | 49.47
Neigh   | 0.017173   | 0.018324   | 0.020089   |   0.6 |  5.37
Comm    | 0.10825    | 0.12102    | 0.13317    |   2.2 | 35.44
Output  | 0.00036593 | 0.00038249 | 0.00049945 |   0.0 |  0.11
Modify  | 0.028028   | 0.028501   | 0.029303   |   0.2 |  8.35
Other   |            | 0.00429    |            |       |  1.26

Nlocal:        72.0000 ave          78 max          68 min
Histogram: 2 0 2 2 2 0 1 2 0 1
Nghost:        1575.33 ave        1598 max        1544 min
Histogram: 1 0 2 0 1 2 1 1 2 2
Neighs:        8299.67 ave        8955 max        7719 min
Histogram: 2 2 0 1 2 0 1 1 1 2

Total # of neighbors = 99596
Ave neighs/atom = 115.27315
Neighbor list builds = 111
Dangerous builds = 0

#############################
# F R E E Z E  S Y S T E M  #
#############################

# Define solid atoms. This closely follows ten Wolde  Ruiz-Montero and Frenkel  Faraday Discuss  1996  104  93-110
# Compute components of the per-atom q6 vector
compute q6 all orientorder/atom degrees 1 6 components 6 nnn NULL cutoff 1.3 # compute the Q6 parameter.
                                                                             # Use all neighbours within 1.3 unit cell.

# get number of connections
compute coord_number all coord/atom orientorder q6 0.5

# An atom is solid if it has 8 or more connections (of a possible 14)
variable is_solid atom c_coord_number>=8
group solid dynamic all var is_solid    # Must be dynamic to update
dynamic group solid defined

# do clustering
compute cluster solid cluster/atom 1.3 # Create a cluster where all atoms within are solid and max 1.3 units from another member

# define chunks one chunk per cluster
compute clus_chunks solid chunk/atom c_cluster nchunk every compress yes  # Says which atoms are in which chunk

# count the size of each chunk
compute size_chunks solid property/chunk clus_chunks count


# Find the maximum entry in the vector of chunk sizes
variable max_n equal max(c_size_chunks)


# Thermo style which includes this variable
# thermo_style custom step temp pe vol v_max_n

thermo ${N}  # Print the thermo information every 100 steps
thermo 100  

# Reset the npt fix at a lower temperature (below freezing)

compute myRDF all rdf 100
fix 2 all ave/time 1 50 100 c_myRDF[*] file pcf.rdf mode vector


compute msd all msd com yes
variable twopoint equal c_msd[4]/6/(step*dt+1.0e-6)
fix 9 all vector 10 c_msd[4]
variable fit equal slope(f_9)/6/(10*dt)
thermo_style custom step temp pe c_msd[4] v_twopoint v_fit v_max_n press vol density


fix 1  all npt temp  ${temp} ${temp}  0.1  iso  5.68  5.68  0.5  mtk yes tchain  5  pchain  5
fix 1  all npt temp  0.73 ${temp}  0.1  iso  5.68  5.68  0.5  mtk yes tchain  5  pchain  5
fix 1  all npt temp  0.73 0.73  0.1  iso  5.68  5.68  0.5  mtk yes tchain  5  pchain  5

dump dmp2 all dcd ${N} traj.dcd
dump dmp2 all dcd 100 traj.dcd
dump dmp3 all dcd ${N} traj_unwrap.dcd
dump dmp3 all dcd 100 traj_unwrap.dcd
dump_modify dmp3 unwrap yes


# fix rnuntil all halt ${N} v_max_n >= 3980 error soft message no   # Stop when solidified

run 100000 # 5000000  # Run for this many steps
Neighbor list info ...
  update every 1 steps, delay 10 steps, check yes
  max neighbors/atom: 2000, page size: 100000
  master list distance cutoff = 3.8
  ghost atom cutoff = 3.8
  binsize = 1.9, bins = 6 6 6
  5 neighbor lists, perpetual/occasional/extra = 1 4 0
  (1) pair lj/cut, perpetual
      attributes: half, newton on
      pair build: half/bin/atomonly/newton
      stencil: half/bin/3d
      bin: standard
  (2) compute orientorder/atom, occasional
      attributes: full, newton on
      pair build: full/bin/atomonly
      stencil: full/bin/3d
      bin: standard
  (3) compute coord/atom, occasional
      attributes: full, newton on
      pair build: full/bin/atomonly
      stencil: full/bin/3d
      bin: standard
  (4) compute cluster/atom, occasional
      attributes: full, newton on
      pair build: full/bin/atomonly
      stencil: full/bin/3d
      bin: standard
  (5) compute rdf, occasional, copy from (1)
      attributes: half, newton on
      pair build: copy
      stencil: none
      bin: none
Per MPI rank memory allocation (min/avg/max) = 9.703 | 9.705 | 9.707 Mbytes
Step Temp PotEng c_msd[4] v_twopoint v_fit v_max_n Press Volume Density 
    4000   0.76907815   -6.6218412 7.8886091e-31  1.64346e-32 8.3333333e+20           18    5.8967818    862.98299    1.0011785 
    4100   0.73514212   -6.6588891  0.034378178 0.00069874337  0.031179968           19    5.8264621    861.01765    1.0034637 
    4200   0.70901002   -6.6973234   0.05747589 0.0011403945  0.025309123           21    5.6770285    859.53795    1.0051912 
    4300   0.73845552    -6.703132  0.071631983 0.0013882166  0.020384122           21    5.7497142    858.96077    1.0058667 
    4400   0.73666831   -6.7526236   0.08589399 0.0016267799  0.017218726           17    5.0833774    864.66553    0.9992303 
    4500   0.70908313   -6.7670082   0.10068988 0.0018646272  0.015684055           19    5.3185685    859.43479    1.0053119 
    4600   0.70553582   -6.7224171   0.11244049 0.0020369653  0.014542462           11    6.1688769    851.64422    1.0145081 
    4700   0.74436853    -6.739698   0.12199964  0.002163114  0.013505634            9    5.8419977    855.16704    1.0103289 
    4800   0.71583072   -6.7346883   0.13361128   0.00231964  0.012657568            9    5.4306213    860.23798    1.0043732 
    4900   0.72236221   -6.7298345   0.14832443 0.0025225241  0.012209929            6    5.3593445    861.56712    1.0028238 
    5000   0.73800484   -6.7539654   0.15618543 0.0026030903  0.011796233            9    5.5474662    857.93447    1.0070699 
    5100   0.69579136   -6.7045235   0.16280037 0.0026601366  0.011297065           11    6.5027218    848.18775    1.0186424 
    5200   0.75595376   -6.7373371    0.1720127 0.0027566135  0.010851285            7    5.6806806    857.59962    1.0074631 
    5300   0.73567379   -6.7555608   0.17436544 0.0027415947  0.010388993            8    5.6065805    857.42202    1.0076718 
    5400   0.69890244   -6.7826677   0.17285851 0.0026675693 0.0097813891           13    5.7185632    852.85238     1.013071 
    5500   0.72652877   -6.7965682   0.17517912 0.0026542289 0.0091642034           10    5.6103469    853.98295    1.0117298 
    5600   0.71214461   -6.7673806   0.18695585 0.0027820808  0.008662232           12    5.4704807    857.85368    1.0071648 
    5700   0.73718075   -6.7265598   0.19594979 0.0028647628 0.0083373824            7     5.562745    859.62869    1.0050851 
    5800   0.74040857   -6.7065488   0.19725799 0.0028341662 0.0080492826            4    5.9971005    854.99472    1.0105326 
    5900   0.71829368   -6.7512755    0.1951565 0.0027564475 0.0076917703           20    5.7268765    855.56022    1.0098646 
    6000   0.77096188   -6.7885915   0.19375688 0.0026910676 0.0073048926           15    5.7614777    853.24304    1.0126071 
    6100   0.73322354   -6.8058254   0.19945749 0.0027248289 0.0069569748           10    5.4287492    855.62152    1.0097923 
    6200    0.7201274   -6.7709417   0.20303945 0.0027290246 0.0066469933           16    5.0965894    862.74847    1.0014506 
    6300    0.7423216   -6.7535724   0.20879167 0.0027617943 0.0063762513           25    5.7876692    854.85832    1.0106938 
    6400   0.73226772   -6.7395202   0.21917219 0.0028538043 0.0061886318           11    6.0848569    851.92431    1.0141746 
    6500   0.72692804   -6.7570836   0.22967407 0.0029445392 0.0060663734            7    5.6289497    856.46294    1.0088002 
    6600   0.75534833   -6.7368718    0.2307643 0.0029136904 0.0059492308            7    5.7548699    856.52039    1.0087326 
    6700   0.71651213   -6.7330288   0.23843163 0.0029655673 0.0058462354            6    6.0249109    852.63927    1.0133242 
    6800   0.73296518   -6.8410525   0.24581986  0.003012498 0.0057602763           13    5.4122857    853.30174    1.0125375 
    6900   0.73860636   -6.7755611   0.25974704 0.0031370414 0.0057143342           14    5.4209163    857.54245    1.0075303 
    7000   0.74489298   -6.7365656   0.27320728 0.0032524674 0.0057122771           26    5.8130923    855.85501    1.0095168 
    7100   0.72634832   -6.7785727    0.2791048 0.0032758777 0.0057317768           15    5.7129567    853.77973    1.0119706 
    7200   0.73734735   -6.8139731   0.28422625 0.0032896555 0.0057322682            4    5.4420428    855.26279    1.0102158 
    7300   0.75779136   -6.7576308   0.28881807 0.0032970097 0.0057280357            6    5.4949755    858.12198    1.0068499 
    7400     0.750049   -6.7677524   0.29318806 0.0033016671 0.0057093802           19    6.1398567    848.93514    1.0177456 
    7500   0.75296106   -6.7929326   0.29820034 0.0033133369  0.005696947           17    6.0686668    848.51886    1.0182449 
    7600   0.78368642   -6.8165102     0.301689 0.0033079932 0.0056727106           15    5.6595736     852.3832    1.0136286 
    7700   0.74226684   -6.8056049   0.31195552 0.0033761417 0.0056552352           11    5.5171135    854.78243    1.0107835 
    7800   0.70111147   -6.8089049    0.3158431 0.0033743918 0.0056281682            6    5.7004113    850.93354    1.0153554 
    7900   0.72938216    -6.768999   0.32264966 0.0034034772 0.0056088598           11     5.778655    852.94499     1.012961 
    8000   0.74464495    -6.786363   0.32844737 0.0034213265 0.0055914432           26     5.831812    852.03286    1.0140454 
    8100   0.72863627   -6.8162923   0.33474027 0.0034438297 0.0055757475           22    5.6242033    852.12796    1.0139322 
    8200   0.70292155   -6.7607024   0.34449666 0.0035009821 0.0055607712            7    5.9107221    851.60532    1.0145545 
    8300   0.74597613   -6.7540149   0.34888764 0.0035028878   0.00555063            7    5.8598364    853.54727    1.0122462 
    8400   0.73175704   -6.7953445   0.35260539 0.0034980691 0.0055387915            5    5.8313935    850.96477    1.0153182 
    8500   0.74860838   -6.8143299   0.35697797 0.0034997838 0.0055188666           11     5.885903     849.6358    1.0169063 
    8600   0.73016414   -6.7668694   0.35996161 0.0034879999 0.0054968238           16    5.9067596    851.54365     1.014628 
    8700   0.74909762   -6.7813631    0.3619714 0.0034671588 0.0054659828            3    5.8739314    851.39244    1.0148082 
    8800   0.71953232   -6.8266056   0.37254636 0.0035279009  0.005439256            4    5.7310968    850.19667    1.0162355 
    8900   0.73527127    -6.804259   0.37873916 0.0035462466 0.0054226577            5    5.6566681    852.16606    1.0138869 
    9000   0.71444916   -6.8232104   0.39642854 0.0036706345 0.0054135184            6    5.6188105    851.83432    1.0142817 
    9100   0.74191907   -6.7355101   0.40654864 0.0037229727 0.0054213222            3    6.5404637     845.9813    1.0212992 
    9200   0.73817113   -6.7818041   0.42224492 0.0038246821 0.0054443282            6    5.9222674    850.96297    1.0153203 
    9300   0.73501379   -6.7807985    0.4348442 0.0038964532 0.0054748541            7    5.3395869    858.41728    1.0065035 
    9400   0.74760135    -6.760978   0.43771309 0.0038804349 0.0055024932            4    5.6466733    855.62293    1.0097906 
    9500   0.71946928   -6.7890833   0.45257241 0.0039699332 0.0055315151            6    5.9917922    849.42773    1.0171554 
    9600   0.71093406   -6.7653293   0.46870497 0.0040686193 0.0055717997           13    5.7836899    853.26659    1.0125792 
    9700   0.71709239   -6.7763802   0.48417176  0.004159551 0.0056221585            6    5.4356775     857.8101    1.0072159 
    9800   0.69854046   -6.8242605   0.49725945 0.0042283965 0.0056756377            5    5.3547766    855.13105    1.0103714 
    9900   0.76929812   -6.8102758   0.50846388 0.0042799988 0.0057323419            5    5.6024918    853.97394    1.0117405 
   10000   0.74046567    -6.733993   0.51193053 0.0042660875  0.005787652           10    6.3400985    848.42065    1.0183628 
   10100   0.75380619   -6.8443725   0.51294247 0.0042321984 0.0058269764            7    5.6512816    849.79694    1.0167135 
   10200   0.71498723   -6.8101668   0.52606774 0.0042979389 0.0058670533           11     5.989767    847.66244    1.0192737 
   10300   0.71950086   -6.7799803   0.52579787 0.0042540279 0.0058965683           15    6.0804856    848.54477    1.0182138 
   10400   0.74654662   -6.7992733   0.54009477 0.0043276822 0.0059296252           12    5.5741774    853.95728    1.0117602 
   10500   0.70898665   -6.7807949   0.54905977  0.004357617 0.0059614123           11    5.6684119     853.7951    1.0119524 
   10600   0.69537224   -6.7892342   0.56324264  0.004428008 0.0059995988           17    5.7269891    852.43001     1.013573 
   10700   0.69845971    -6.743907   0.56379538 0.0043909295 0.0060333418           16    5.7073488    856.09417    1.0092348 
   10800   0.73897459   -6.7797447   0.56846867 0.0043863321 0.0060564543           14     5.426704    857.30476    1.0078096 
   10900   0.69753659   -6.7865604   0.57838415  0.004421897 0.0060780031           10    5.9022495    850.31355    1.0160958 
   11000   0.73300925    -6.778596   0.57928754 0.0043885418 0.0060978823           10    5.6824236    854.18841    1.0114864 
   11100   0.72914777   -6.7808667   0.58938276 0.0044247953 0.0061125358           14     5.523497    856.59645     1.008643 
   11200   0.70720161    -6.793228   0.59399871  0.004419633 0.0061256981            9    5.6633886    852.77769    1.0131597 
   11300   0.73324744   -6.8260833   0.59018989 0.0043524327 0.0061303475           23     5.514135    853.01312    1.0128801 
   11400   0.75888712   -6.7633382   0.59455067 0.0043461305 0.0061320245           14    5.8552725    852.95229    1.0129523 
   11500   0.74449544   -6.8089806   0.59769291 0.0043311078 0.0061278405           10    5.8651929     849.7618    1.0167555 
   11600   0.73962865    -6.781839   0.60879642 0.0043735373 0.0061251086           13    6.0049724    849.25655    1.0173604 
   11700   0.75637913   -6.7485461   0.62747186 0.0044691726 0.0061268204           13    5.7139635    855.77993    1.0096054 
   11800   0.72747893   -6.7861829   0.65006859 0.0045908797 0.0061418072           26    5.5332251    855.63316    1.0097785 
   11900   0.72580548   -6.7984091    0.6545329 0.0045835636 0.0061601779           43    5.4085282    856.05357    1.0092826 
   12000   0.76178738   -6.7324651   0.64702727 0.0044932447 0.0061701101           15    6.1751591      851.463    1.0147241 
   12100   0.73869337   -6.7792057   0.64543845 0.0044451682 0.0061701035           13     5.713936    853.82853    1.0119128 
   12200   0.70777585   -6.7196808   0.65115159 0.0044477566 0.0061645488            4    5.6666619    858.09203     1.006885 
   12300   0.75255702   -6.7585174   0.64916727  0.004398152 0.0061566039           16    5.2635863     862.0519    1.0022598 
   12400   0.75390302   -6.7792031   0.63852102 0.0042911357 0.0061392353           11     5.972775    850.98052    1.0152994 
   12500   0.73740878   -6.7834059   0.64591518 0.0043061011 0.0061174617           36    5.9884316    850.50635    1.0158654 
   12600   0.72331349   -6.7698401   0.65152458 0.0043090248 0.0060945514           21    5.7505403    854.11815    1.0115696 
   12700   0.74359056    -6.783523   0.67118548 0.0044041041 0.0060788798           23    5.0156472    863.20976    1.0009155 
   12800   0.70123538   -6.8021245    0.6842932 0.0044550337 0.0060679482           28    5.1592279     859.0733    1.0057349 
   12900   0.71235803   -6.7588845   0.68830923 0.0044464419  0.006060961           16    5.9898034    851.48356    1.0146996 
   13000   0.71047643   -6.7420644   0.69722749 0.0044694068 0.0060536799            9    5.9028301    853.39359    1.0124285 
   13100   0.76114244   -6.7677667   0.69999841 0.0044529159 0.0060459469           28    5.3910967    859.45361    1.0052899 
   13200   0.74375895    -6.826522   0.69424232 0.0043828428 0.0060317459           16    5.1075967    858.97604    1.0058488 
   13300   0.74165949   -6.7918324   0.69913494 0.0043805445 0.0060151289           29    5.7015011    853.24315     1.012607 
   13400    0.7499388   -6.7547063    0.7112391 0.0044231286  0.006000701           15    6.0603469    850.91948    1.0153722 
   13500   0.71369704   -6.7992145   0.71218307 0.0043961917 0.0059868749           31    5.6449539    852.91351    1.0129984 
   13600   0.74752525   -6.7728176   0.70081293 0.0042941967 0.0059686564           22    5.8151563    852.79443    1.0131398 
   13700    0.7427239   -6.7723498   0.69194407 0.0042089054 0.0059399336           17    5.6125989    855.73452    1.0096589 
   13800    0.7214634   -6.7810431   0.68946474 0.0041634343 0.0059078161           19    5.8554912    851.92377    1.0141752 
   13900   0.71586527   -6.8238227   0.68796019 0.0041244614 0.0058717838            9    5.4477415    853.97404    1.0117404 
   14000   0.68059736   -6.8348455   0.69704381 0.0041490701 0.0058366982           19    5.2529428    855.12242    1.0103816 
   14100   0.70989634   -6.7862198   0.70759881 0.0041820259 0.0058037507           18    5.5981952    854.66714    1.0109199 
   14200   0.72218065   -6.7705431   0.72242335 0.0042395735 0.0057774063           26    5.8018399    852.69361    1.0132596 
   14300   0.71075791   -6.8225366   0.72511035 0.0042255846 0.0057536213            9    5.4211946     854.0402     1.011662 
   14400   0.74140461   -6.8760176    0.7214571 0.0041750988 0.0057268819           22    5.6875252    847.84716    1.0190516 
   14500   0.77856074   -6.8227781   0.72860851 0.0041874051 0.0056990815           15    5.9387481     848.5879     1.018162 
   14600   0.71838182   -6.7920788   0.74037765 0.0042258997  0.005675261            8    6.0365612    848.22525    1.0185974 
   14700   0.75040102   -6.8297496   0.76448113 0.0043337931 0.0056573084           24     5.551836    852.49263    1.0134985 
   14800   0.73762105   -6.7747251   0.77169859 0.0043451496 0.0056450235           10    5.6306804    854.99432     1.010533 
   14900   0.74955435   -6.7470298   0.75790546 0.0042388447 0.0056269895           10    5.8314527    854.77113    1.0107969 
   15000   0.72943281   -6.7504916   0.76185749 0.0042325415 0.0056055909           13    5.9239039    853.09921    1.0127779 
   15100   0.73242884   -6.8011402   0.77571329 0.0042809783 0.0055875553           25     5.591394    853.81604    1.0119276 
   15200   0.77706542   -6.7767798   0.77329232 0.0042395411 0.0055700626           31    5.9711985    851.53405    1.0146394 
   15300   0.72577431    -6.780921   0.76752006 0.0041803924 0.0055481139           24    5.9877065    850.48375    1.0158924 
   15400     0.728186    -6.802063   0.77591478 0.0041986729 0.0055257178           33     5.677614    852.35545    1.0136616 
   15500   0.71184925   -6.8290281    0.7715245  0.004147981 0.0055020741           29    5.4557188     853.2103     1.012646 
   15600    0.7233213   -6.7922902   0.77300369 0.0041292931 0.0054772449           12    5.6631103    853.34477    1.0124864 
   15700   0.76157975    -6.818289   0.76203297 0.0040447608 0.0054495328           43    5.6937872     851.4029    1.0147957 
   15800   0.72557407    -6.805062   0.76155123 0.0040166203  0.005419225           58    6.1461117    845.98269    1.0212975 
   15900   0.74637136   -6.8402752   0.76741949 0.0040221146 0.0053887952           19    5.5878887    851.26046    1.0149655 
   16000   0.74040153   -6.7771734   0.78668442 0.0040973145 0.0053615482           17    5.6350326    855.31136    1.0101585 
   16100   0.77015443   -6.7604756   0.80726078 0.0041783683 0.0053407283            7    5.6031494    856.60768    1.0086298 
   16200    0.7297425    -6.738753   0.81683589 0.0042018306 0.0053236223            7    5.8884886    854.22774    1.0114399 
   16300   0.71851478   -6.7393376   0.82624212 0.0042241416 0.0053087888           10    6.1008463    851.64386    1.0145086 
   16400   0.71507611   -6.7178899   0.83731258 0.0042546369 0.0052954963           12    5.8089623    856.18719    1.0091251 
   16500   0.75766192   -6.7398632   0.84227597 0.0042539189  0.005283822            9    5.1340623    864.01473   0.99998295 
   16600     0.728624   -6.7656766   0.84255462 0.0042296917 0.0052704335           15    5.8380627    853.01595    1.0128767 
   16700   0.71500879   -6.7929462   0.85260902 0.0042545359 0.0052581009           14    5.7001624     852.6959    1.0132569 
   16800   0.67816287   -6.8155578   0.84913436 0.0042119759 0.0052442892           33    5.5339334    852.84783    1.0130764 
   16900   0.70718833   -6.8117086   0.86788766 0.0042795248 0.0052314229           45    5.0509229    859.50275    1.0052324 
   17000   0.69510724   -6.7848882   0.87042456 0.0042667869 0.0052198906           21    5.3415498    857.35754    1.0077476 
   17100    0.7205402   -6.7946788   0.88185473 0.0042975376 0.0052101616           22    5.6669001    852.97207    1.0129288 
   17200   0.70526536   -6.7458481   0.89727723 0.0043472733  0.005202904           29    5.8601322    853.78438    1.0119651 
   17300   0.72388843   -6.7160097      0.89611  0.004316522 0.0051973499           29    5.8121538    856.62865    1.0086051 
   17400   0.69686748   -6.7727284   0.89927317 0.0043068637 0.0051898675           47    5.4690257    856.42049    1.0088502 
   17500   0.70395713   -6.8518405   0.90057612 0.0042884576 0.0051807431           21    5.6123937    849.17915    1.0174531 
   17600   0.71914588   -6.7706401    0.9148564 0.0043317063 0.0051732553           29    6.1048813    849.28183    1.0173301 
   17700     0.760332   -6.8095213   0.92795916 0.0043689225 0.0051687577           17    5.5499932    854.01009    1.0116976 
   17800   0.72853034   -6.8027844   0.93969222  0.004399308 0.0051661145           13    5.5848177    853.94748    1.0117718 
   17900   0.71999644   -6.8217081   0.92691757 0.0043152586 0.0051602124           16    5.2471089    856.58636    1.0086549 
   18000   0.74449057   -6.7955603   0.93477227 0.0043276493 0.0051530558           11    5.3987231    856.71988    1.0084977 
   18100   0.75734423   -6.7789686   0.92616545 0.0042641134 0.0051454305            9    5.9545518      850.705    1.0156282 
   18200   0.71817478   -6.7959391   0.92691922 0.0042441355 0.0051350875           14    5.8258549    850.52774    1.0158399 
   18300   0.74156942   -6.8035482   0.93898173  0.004275873 0.0051255345           19    5.4824048    855.06981    1.0104438 
   18400   0.77807756    -6.843125   0.93938079 0.0042544419 0.0051154466           11    5.3913532    854.11728    1.0115707 
   18500   0.71259287    -6.816931   0.96139335 0.0043306006 0.0051078195           24    5.6583417    851.29035    1.0149299 
   18600   0.74764968   -6.8083954   0.97642619 0.0043746692 0.0051034149           16     5.806625    850.75983    1.0155628 
   18700   0.73462929    -6.706164   0.98986272 0.0044111528 0.0051011633           29    5.9815964    854.86898    1.0106812 
   18800   0.72154532    -6.738376   0.99696599 0.0044191754 0.0050993213           17    5.7270914    856.02712    1.0093138 
   18900   0.72326551   -6.7607749    1.0020514 0.0044182159 0.0050978761           24    5.6636722    855.59133    1.0098279 
   19000   0.69591283   -6.8013557    1.0185819 0.0044674642 0.0050976933           49    5.6816168    852.05595    1.0140179 
   19100   0.71917636   -6.7650593     1.018681 0.0044445069 0.0050980672           31    5.8994409    852.32585    1.0136968 
   19200   0.75571509   -6.7975144    1.0225845 0.0044383008 0.0050970091           18    5.5167668    855.52109    1.0099108 
   19300   0.70323723   -6.7539096     1.026256  0.004431157 0.0050957034           72    5.9602865    851.54587    1.0146253 
   19400    0.7178659   -6.7786781    1.0338195 0.0044408053 0.0050945558          109    5.9083292    850.60492    1.0157477 
   19500   0.71111667   -6.8069307    1.0487876 0.0044819983 0.0050948636          105    5.7998257    850.69986    1.0156344 
   19600   0.74524734   -6.7740459    1.0694303 0.0045468975 0.0050971259           77    5.7766809    853.63401    1.0121434 
   19700   0.69682644    -6.780544    1.0833438 0.0045826725 0.0051019235           91    5.4975924    856.03506    1.0093045 
   19800   0.70884006    -6.790881    1.0842976 0.0045635421 0.0051055591          104    5.1841982    859.72813    1.0049689 
   19900   0.70965883   -6.7776823    1.0912214 0.0045696039 0.0051082118           30     5.178653     860.4869    1.0040827 
   20000   0.75392742   -6.7632426    1.0916825 0.0045486769 0.0051113238           38     5.770223    855.02006    1.0105026 
   20100   0.73194702   -6.7471451    1.0922628 0.0045284527 0.0051138377           49     5.910486    854.03015    1.0116739 
   20200   0.71971568   -6.7803804    1.0967626 0.0045245979 0.0051154407           77    5.6156507    854.67777    1.0109073 
   20300   0.70311157   -6.7248146    1.0857326 0.0044570303   0.00511465           91    5.9000155    854.77058    1.0107975 
   20400   0.73368876   -6.7597709    1.0877036 0.0044432334 0.0051122244           58    5.7214478    855.43611    1.0100111 
   20500   0.73336452   -6.7633414    1.0827749 0.0044015239 0.0051084282           92    6.0028932     851.3446    1.0148652 
   20600   0.72927654   -6.8089319    1.0905498 0.0044116092 0.0051040383           81    5.6077344    853.21587    1.0126394 
   20700    0.7265045   -6.8456441    1.0998268 0.0044276442 0.0050996783           87    5.4500125    852.47826    1.0135156 
   20800   0.72415422   -6.8231081     1.117007 0.0044751881 0.0050971666           71    5.7681357    849.63147    1.0169115 
   20900   0.75301291   -6.8108826    1.1177359 0.0044566821 0.0050955207           60    5.6002974    853.10664     1.012769 
   21000   0.76388429     -6.72521    1.1282193 0.0044770606 0.0050938955           24    6.5639511    846.82164    1.0202857 
   21100   0.74187926   -6.7748837     1.132885 0.0044742694 0.0050932136           38    6.0098941    850.39166    1.0160024 
   21200   0.73616872   -6.8185692    1.1475662 0.0045108733 0.0050919293           28    5.7364809    850.54076    1.0158243 
   21300   0.72903582   -6.8608547    1.1580153 0.0045305761  0.005091762           75    5.0094346    856.80704    1.0083951 
   21400   0.75273276   -6.7987679    1.1696154 0.0045545771 0.0050929091           21    5.5545156    854.26402    1.0113969 
   21500   0.71448511   -6.7830698    1.1765289 0.0045601893 0.0050944636           40    6.0026738    849.30019    1.0173081 
   21600   0.74775489   -6.8085515    1.1905435 0.0045931462 0.0050962913           15    5.9002283    849.62643    1.0169175 
   21700   0.71835624   -6.7909425    1.2028277  0.004619154 0.0050996411           13    5.8296447    850.86731    1.0154345 
   21800   0.75462089    -6.804487    1.2163441 0.0046496334 0.0051038566           50    5.2482434    857.97432    1.0070231 
   21900    0.7446722   -6.7997058    1.2039887 0.0045813875 0.0051064371           72    5.7737194    851.28626    1.0149347 
   22000   0.72117688   -6.8388256    1.2050872 0.0045647241 0.0051077228           26     5.567657    850.53449    1.0158318 
   22100   0.75227528   -6.8333228    1.2038651 0.0045394612 0.0051080913           29    5.3931771    853.71711    1.0120448 
   22200   0.71237807   -6.7798396    1.2071083 0.0045311872 0.0051075307           38    5.9197987    850.35835    1.0160422 
   22300   0.74033756   -6.8281267    1.2090686 0.0045181935 0.0051066944           65    5.8863077    847.86283    1.0190328 
   22400   0.74574067   -6.7829281    1.2107874 0.0045044173 0.0051048739           44    5.7373245    853.13795    1.0127319 
   22500   0.71995646   -6.8023358    1.2199616 0.0045183763  0.005103566           73    5.4259027    855.94149    1.0094148 
   22600   0.72252479   -6.8583026    1.2299616 0.0045352564 0.0051013035          104    5.4441607    851.25285    1.0149746 
   22700   0.72810392   -6.8219804    1.2530698 0.0046001093 0.0051013938           84    5.7133026    850.40503    1.0159865 
   22800   0.73093026   -6.8171968    1.2684647 0.0046362013 0.0051035507           53    5.6058771    851.71298    1.0144262 
   22900   0.70109243    -6.844714    1.2708655 0.0046246926 0.0051062527           54    5.6971949     848.0487    1.0188094 
   23000   0.72990096   -6.8065519    1.2611877 0.0045695205 0.0051072062           80    6.1450231    846.11287    1.0211404 
   23100   0.76109131   -6.8190457    1.2521566 0.0045171593 0.0051065266           47    6.0245038    847.13661    1.0199063 
   23200   0.74885734   -6.8470096    1.2546693 0.0045067143 0.0051047167           51    5.7288256    848.95263    1.0177246 
   23300   0.74459131   -6.7951882    1.2528384  0.004480824 0.0051013994           81    5.8195323    850.86855     1.015433 
   23400   0.70725382   -6.8512289    1.2481975 0.0044451477 0.0050970883           86     5.617513    849.74637     1.016774 
   23500   0.68358019   -6.8286227    1.2622125 0.0044759307 0.0050924252          135    5.3962331    853.09674    1.0127808 
   23600   0.75611599   -6.8543254     1.268896 0.0044805648 0.0050888369          135    5.3872297    852.82978    1.0130978 
   23700   0.73629395   -6.8657352    1.2817536  0.004506869 0.0050858502           74    5.8943732    845.60051    1.0217591 
   23800    0.7569206   -6.9110133    1.2734911 0.0044590025 0.0050828524          128    5.6295212    845.84121    1.0214683 
   23900   0.76285354   -6.8458791    1.2832298 0.0044743019 0.0050787903          142    5.3936816    853.05878    1.0128259 
   24000   0.71686687   -6.8363152     1.302258 0.0045217291 0.0050759502          157    5.7133271    849.16393    1.0174714 
   24100   0.70226683   -6.8675097    1.3199762  0.004564233  0.005074673          176    5.3531665    852.01656    1.0140648 
   24200   0.74147451   -6.8412886    1.3295731 0.0045784196 0.0050744229          178    5.3682078    854.06203    1.0116361 
   24300   0.73229573   -6.7913353    1.3235446 0.0045389046 0.0050736063          171    6.2532869    845.94068    1.0213482 
   24400   0.71965366   -6.8258546    1.3220589 0.0045152284 0.0050715749          179    6.0945431    845.79913    1.0215191 
   24500   0.70886174   -6.7749684    1.3392938 0.0045554209 0.0050701181          135    5.7005309     853.4001    1.0124208 
   24600   0.72563073   -6.8244536    1.3504853 0.0045748147 0.0050692661          147     5.476262    853.33178    1.0125018 
   24700   0.73557244   -6.8422055    1.3380636 0.0045143845 0.0050679872          141    5.6130288    850.45802    1.0159232 
   24800   0.73947412   -6.8670397    1.3441833 0.0045167449 0.0050655045          162    5.4660227    850.66721    1.0156733 
   24900   0.73977518    -6.833516    1.3337366 0.0044636432 0.0050621167          158    5.7592763    849.50267    1.0170657 
   25000   0.74685487   -6.8855985    1.3256315 0.0044187716 0.0050573679          129    5.3554997    851.55572    1.0146136 
   25100   0.73473961   -6.8761412    1.2928275 0.0042922559 0.0050489332          160    5.5143736    849.24968    1.0173687 
   25200   0.75577179    -6.803481     1.298829 0.0042950695 0.0050394511          125    6.1193415    846.26706    1.0209543 
   25300   0.75486383   -6.8507307    1.3023812  0.004289793 0.0050302075          182    5.8508203    846.58849    1.0205667 
   25400   0.71705955   -6.9049502    1.3128074  0.004307111 0.0050208486          175      5.30835    850.05074    1.0164099 
   25500   0.71402363   -6.8436553     1.321019 0.0043170554 0.0050118229          198    5.3761754    852.98046    1.0129189 
   25600   0.70602466   -6.8721236    1.3404413 0.0043634157 0.0050044546          201    5.1570137    854.85474     1.010698 
   25700   0.72560554   -6.8313711    1.3380391 0.0043386481 0.0049969501          214    5.9028985    847.43104     1.019552 
   25800   0.73851291   -6.8637951    1.3682828 0.0044195181 0.0049908169          213    5.5855954    849.69803    1.0168318 
   25900   0.72808275    -6.874472    1.3811093 0.0044437235 0.0049871885          217    5.6094675    848.17973     1.018652 
   26000   0.72838259   -6.8125721     1.381543 0.0044280223 0.0049833932          203    5.9508879    848.47669    1.0182955 
   26100   0.72287239   -6.8165354    1.3849533 0.0044219452 0.0049789425          215    5.8257358    848.85444    1.0178424 
   26200   0.72019533    -6.856158    1.3832503 0.0043996508 0.0049741437          212    5.4223163    851.42362     1.014771 
   26300   0.70955618   -6.8615572    1.3898583 0.0044038603 0.0049693206          202    5.4961968    850.13051    1.0163145 
   26400   0.72976563   -6.7752926    1.3918914 0.0043935965 0.0049641655          174    6.2479826    847.24707    1.0197734 
   26500   0.74621639   -6.8424735    1.4042201 0.0044157863 0.0049597046          166     5.703668    849.67715    1.0168568 
   26600   0.75199142    -6.816668    1.3940117 0.0043672044 0.0049551123          163    5.8447217    849.60613    1.0169418 
   26700   0.74552626   -6.7719985    1.3991204 0.0043667926 0.0049490294          157    5.8249067    852.21958    1.0138232 
   26800   0.70593584   -6.8528036    1.4120142 0.0043905913 0.0049437551          171    5.2831444    853.81303    1.0119311 
   26900   0.74620354   -6.8543313    1.4154974 0.0043850602 0.0049385747          172    5.2561924    854.43427    1.0111954 
   27000   0.72692044   -6.7789807    1.4390191  0.004441417   0.00493446          195    5.7638953    853.06581    1.0128175 
   27100   0.70801574   -6.8088199    1.4493404 0.0044567661 0.0049317056          182    5.6992456    851.51729    1.0146594 
   27200   0.70959942   -6.8480092    1.4673021 0.0044954107 0.0049292296          122    5.5788842    850.26744    1.0161509 
   27300    0.7423283   -6.8047951    1.4819706 0.0045237196 0.0049282906          181    5.7147364    852.13808    1.0139202 
   27400   0.76817298   -6.8542173    1.4711298 0.0044742389 0.0049267784          173    5.5529684    850.68295    1.0156545 
   27500   0.71705676   -6.8367067    1.4611832 0.0044278277 0.0049234662          186    5.8827307     847.2736    1.0197414 
   27600   0.75547746    -6.844163    1.4643275 0.0044212786 0.0049199829          231    5.6497744    849.76571    1.0167508 
   27700   0.77617807   -6.7848828    1.4592213 0.0043899558 0.0049159955          217    5.9594339    850.89827    1.0153975 
   27800   0.75523675   -6.8282705    1.4584018 0.0043717079 0.0049111652          225    5.8269243    849.05901    1.0175971 
   27900   0.72820248   -6.8637721    1.4653594 0.0043768201 0.0049061301          222    5.2715661    853.35911    1.0124694 
   28000   0.70288725   -6.7832904    1.4721651 0.0043814437 0.0049011691          203     5.801921    851.46094    1.0147265 
   28100   0.72674661   -6.8073775     1.484294 0.0044018208 0.0048970619          193    5.7010484    851.60305    1.0145572 
   28200   0.75704139   -6.8812791    1.4762332 0.0043623912 0.0048925329          214    5.0218806    855.91251     1.009449 
   28300   0.70265279   -6.7747644    1.4604801 0.0043005892 0.0048861121          202    5.7572328    853.43489    1.0123795 
   28400   0.69683455   -6.8103231    1.4335942 0.0042065557 0.0048777217          214    6.0780723    846.07887    1.0211814 
   28500   0.72566326   -6.8910691    1.4429291 0.0042190907 0.0048684242          209    5.4874036    848.97464    1.0176982 
   28600   0.72966814   -6.8686631    1.4669018 0.0042741893 0.0048601415          176    5.0835355    855.13875    1.0103623 
   28700   0.72005441   -6.8142668    1.4859355 0.0043145629 0.0048532592          177    5.4776668    853.71562    1.0120466 
   28800   0.73521072   -6.8352081    1.5118873 0.0043746738 0.0048485117          228    5.7317933    849.00784    1.0176585 
   28900   0.73526341   -6.8416381    1.5132991 0.0043636076  0.004844038          246    5.8434883    847.40111     1.019588 
   29000   0.77954217   -6.8788907    1.5106357 0.0043409072 0.0048398966          230    5.8052014    846.20116    1.0210338 
   29100   0.74121314   -6.8749784    1.5028003 0.0043035517 0.0048345844          232    5.7704889    846.37233    1.0208273 
   29200   0.74998966   -6.8515254    1.5120924  0.004315332 0.0048290192          225    5.5487666    850.90846    1.0153854 
   29300   0.72690281   -6.8110691    1.5220745 0.0043289945 0.0048237387          215    5.4612475     854.8055    1.0107563 
   29400   0.70141757    -6.841817    1.5109077 0.0042826181 0.0048176955          181    5.6429425    850.17639    1.0162597 
   29500   0.73610157    -6.843661    1.5234316 0.0043034791 0.0048119109          204    5.6543202     850.1592    1.0162802 
   29600   0.74386832   -6.8549835    1.5136183 0.0042613126 0.0048055393          211    5.7294689    848.69477    1.0180338 
   29700     0.713221   -6.8841134    1.4922808 0.0041870955 0.0047977482          226    5.6397582    847.12723    1.0199176 
   29800   0.71871157   -6.8223079    1.5064076 0.0042125492 0.0047896235          221    6.0787825    845.45041    1.0219405 
   29900   0.77556034   -6.8238318    1.5007149 0.0041825945 0.0047820677          225    6.0843905     846.1937    1.0210428 
   30000   0.73622532   -6.8482133    1.5062929 0.0041841468 0.0047736814          220    5.6491714    849.90922    1.0165792 
   30100     0.738564   -6.8702097    1.5004227 0.0041539942 0.0047654295          230    5.8742076    845.66602    1.0216799 
   30200   0.70317586   -6.8773285    1.5067729 0.0041577619 0.0047566704          233    5.6345644     847.1201    1.0199262 
   30300   0.71874431   -6.8538786    1.5196899 0.0041795652 0.0047481668          207    5.2285082    854.82507    1.0107331 
   30400   0.73082413   -6.8501329    1.5364564 0.0042117775 0.0047406781          249    5.5007182    851.62182    1.0145348 
   30500   0.70773504   -6.8785991    1.5493884 0.0042333016  0.004734272          229    5.5516598    848.34704    1.0184511 
   30600    0.7318785   -6.8438259    1.5473744 0.0042139825 0.0047275708          240    5.7230406    849.17906    1.0174533 
   30700   0.73286001   -6.8298546     1.541793 0.0041851057 0.0047206702          230     5.936695    847.11592    1.0199313 
   30800   0.71305748   -6.8761164    1.5446544 0.0041792597 0.0047133311          227    5.7231175    846.21665    1.0210151 
   30900   0.73023813   -6.9092021    1.5613253 0.0042106939 0.0047062874          275    5.4223762    848.27347    1.0185395 
   31000   0.72408021   -6.8374644    1.5733961 0.0042295594 0.0046999619          236     5.576521    851.10715    1.0151483 
   31100   0.74060156   -6.8184605    1.5932834  0.004269248 0.0046947878          214    5.4046742     855.0721    1.0104411 
   31200   0.74587798   -6.8306127    1.6056858 0.0042886907 0.0046898881          190    5.0699173    858.66177    1.0062169 
   31300   0.71137671   -6.8646637    1.6057735 0.0042752224 0.0046853335          225    5.3273074    852.58282    1.0133913 
   31400   0.71685366    -6.826704    1.5957561 0.0042350215 0.0046803701          226     6.393022    841.32141    1.0269559 
   31500    0.7174309   -6.9014874    1.5882229 0.0042016478  0.004674908          229    5.8691666    843.54742    1.0242459 
   31600   0.77524054   -6.9182034    1.5906008 0.0041946223 0.0046685943          235    5.6221707    845.18866     1.022257 
   31700   0.71354121   -6.8936612    1.6130116 0.0042403038 0.0046632167          222    5.5858735    847.21969    1.0198063 
   31800    0.7541828   -6.8894621    1.6217109 0.0042497664 0.0046581559          205    5.3650083    850.67551    1.0156634 
   31900   0.72735695   -6.8363053    1.6192486  0.004230012  0.004653036          193    5.9590866    846.60461    1.0205472 
   32000   0.75289048   -6.8661692    1.6151629 0.0042061534 0.0046479059          239     6.060724    843.08555     1.024807 
   32100   0.72979145   -6.9342487    1.6132988 0.0041882106 0.0046425053          244    5.8007889     841.4565     1.026791 
   32200   0.69058835   -6.9121385    1.6202299 0.0041931416 0.0046365754          233    5.6238531    844.67527    1.0228783 
   32300   0.73292117   -6.9083017    1.6294338 0.0042039054 0.0046309083          234    5.3134189    849.83155    1.0166721 
   32400    0.7453996   -6.8861798    1.6424767  0.004224477 0.0046261119          232    5.7909194    845.09816    1.0223664 
   32500   0.73513209   -6.9291882    1.6403069 0.0042059151 0.0046209537          233    5.8673627    840.99975    1.0273487 
   32600    0.7472201   -6.8990672    1.6542044 0.0042285387 0.0046163414          202    5.7524474    845.24332    1.0221909 
   32700   0.73690009   -6.8621111    1.6689728 0.0042532436 0.0046120624          201     5.685434    848.23732    1.0185829 
   32800     0.720871   -6.8800679    1.6528668 0.0041993565 0.0046075224          185    5.5992611    847.71179    1.0192143 
   32900   0.72764296   -6.8943475    1.6503669 0.0041802605 0.0046020498          202    5.6026995    846.61832    1.0205307 
   33000    0.7749727   -6.8981313    1.6623005 0.0041977285 0.0045969067          209    5.4741504    848.87711    1.0178152 
   33100   0.71849501   -6.8268861     1.655272 0.0041673514 0.0045915264          215    6.0704111    845.58962    1.0217722 
   33200   0.76108899   -6.8176783    1.6460897 0.0041317513 0.0045854579          251    5.9864849     847.3215    1.0196838 
   33300   0.72369264    -6.896905    1.6467191 0.0041209187 0.0045791117          266    5.5227437    848.07191    1.0187815 
   33400   0.73836512   -6.9212144    1.6613419 0.0041450645 0.0045727911          252     5.215318    850.44788    1.0159353 
   33500   0.70480614   -6.8754566    1.6582046  0.004124887 0.0045665303          245    5.6513731    846.87455    1.0202219 
   33600   0.71697157   -6.9273913    1.6796206 0.0041657256 0.0045605876          262    5.5224213     845.4196    1.0219777 
   33700    0.7518048   -6.8895904     1.693871 0.0041886028 0.0045555784          227    5.1559074    853.49911    1.0123033 
   33800   0.71365191   -6.8283196    1.6958955 0.0041812018 0.0045507844          231    5.8154103    848.58522    1.0181653 
   33900   0.71117163   -6.8419894     1.701069 0.0041815854 0.0045461318          234    5.6974112    849.36399    1.0172317 
   34000   0.72822104   -6.8213919    1.6994127 0.0041652271 0.0045413105          238    5.5109898    852.77669    1.0131609 
   34100   0.71338503   -6.8813857    1.6790671  0.004103292 0.0045356656          259    5.7116635    846.22047    1.0210105 
   34200   0.74113544   -6.8874048    1.6835934  0.004102323 0.0045295144          291    5.7858971    845.71872    1.0216163 
   34300   0.75355332   -6.8335065    1.6883933 0.0041020246 0.0045235737          270    6.0334834    846.26562     1.020956 
   34400   0.72034276   -6.8758927    1.6807649 0.0040716204 0.0045173941          260    5.4119494    850.12782    1.0163178 
   34500   0.72669872   -6.8850391    1.6875507 0.0040762094 0.0045103276          231    5.3678872    850.84277    1.0154638 
   34600   0.73972312   -6.9200494    1.7141868 0.0041285809 0.0045047295          258    5.8354649    842.82026    1.0251296 
   34700   0.72922805   -6.8564698    1.7196966 0.0041299148 0.0044999996          261    6.3247703    840.32171    1.0281776 
   34800   0.79791782   -6.9143923    1.7225618 0.0041249086 0.0044950048          247    5.6522175    845.90756    1.0213882 
   34900   0.72319162   -6.8393358    1.7253134 0.0041196596 0.0044902488          236    6.0774475    844.49143     1.023101 
   35000   0.72888623   -6.8595257    1.7400147  0.004142892 0.0044853896          211    5.4703499    850.94761    1.0153387 
   35100   0.69700365   -6.8575012    1.7536358 0.0041634279  0.004480739          224    5.1247439    855.73189     1.009662 
   35200   0.71790461   -6.8425988    1.7290287 0.0040933445 0.0044755768          227    5.6379049    849.81158     1.016696 
   35300   0.74558067   -6.8279629    1.7286977  0.004080967 0.0044700462          249    5.8572148    848.79706    1.0179112 
   35400   0.70722535    -6.856107    1.7285278  0.004069039  0.004464045          207     5.623006    849.33764    1.0172633 
   35500   0.73704787   -6.8460318    1.7369757 0.0040774077 0.0044581632          247    5.6261382    850.64666    1.0156979 
   35600   0.72924288   -6.7501637    1.7430028 0.0040800627 0.0044528396          249    5.9911658    852.20639    1.0138389 
   35700   0.73063066   -6.8607966    1.7324692 0.0040440458 0.0044466716          242    5.3984239    852.20658    1.0138387 
   35800   0.73875572   -6.8679935    1.7317739  0.004031131 0.0044402101          249    5.6196866    848.69654    1.0180317 
   35900   0.77345319   -6.8273429    1.7407061 0.0040406363  0.004434128          215    5.9067691    848.51498    1.0182496 
   36000   0.70723389   -6.7860798    1.7712063 0.0041000145 0.0044288667          207    6.1085069    847.92635    1.0189564 
   36100   0.75266273   -6.8329857    1.7923443 0.0041374522 0.0044246863          218    5.3356041    855.05649    1.0104596 
   36200   0.70870812   -6.8442427     1.814532 0.0041770995 0.0044208838          192    4.8960359    859.67208    1.0050344 
   36300   0.74480406   -6.8580249    1.8052142 0.0041442015 0.0044172898          240    5.4077969    852.22514    1.0138166 
   36400    0.7258808   -6.8491633    1.7872693 0.0040917337 0.0044132209          247    6.1113283    843.11632    1.0247696 
   36500   0.75096452   -6.9293771    1.7942032 0.0040963543 0.0044087417          259    5.6198694    844.69214    1.0228579 
   36600   0.68280956   -6.8821723    1.7969262 0.0040913619 0.0044041718          261    5.7569846    844.71464    1.0228306 
   36700   0.73081924   -6.8798457    1.8109477  0.004112052 0.0043999981          249    5.5404106    849.44158    1.0171388 
   36800   0.74283836   -6.8648591    1.8107761 0.0041004894  0.004395812          262    5.4987775    850.69769    1.0156369 
   36900   0.71383861   -6.8487567    1.8028713  0.004071525 0.0043912125          255    5.4862743     851.8022      1.01432 
   37000   0.71564876   -6.9165793    1.7828299 0.0040153827  0.004385664          274    5.7599874     843.2769    1.0245745 
   37100   0.71618362   -6.8621363    1.8063201 0.0040573226 0.0043800618          259    5.6666604    848.10615    1.0187404 
   37200    0.7318101   -6.8623787    1.7990685 0.0040301714 0.0043750377          309    5.8662087    845.68022    1.0216628 
   37300   0.72263133   -6.8963692    1.8105534 0.0040450255 0.0043697431          282    5.6822566    846.02669    1.0212444 
   37400   0.73279703   -6.8278818    1.8187142 0.0040523934 0.0043650477          326    6.2594855    843.31205    1.0245318 
   37500   0.74174703    -6.904058    1.8134526 0.0040298946 0.0043601582          345    5.4143151    848.34237    1.0184567 
   37600   0.70421234   -6.9424634     1.818185 0.0040296652 0.0043547735          326    5.3081555    847.42559    1.0195585 
   37700    0.7314214    -6.899353    1.8165778 0.0040154238 0.0043494399          316     5.623525    846.18839    1.0210492 
   37800   0.75497693   -6.8826163    1.8316502 0.0040380294 0.0043445581          340    6.0177699    842.34273    1.0257108 
   37900   0.73879748   -6.8916672    1.8213169 0.0040046545 0.0043397616          283    5.8215474    844.41488    1.0231937 
   38000   0.72810779   -6.8907842    1.8249303 0.0040020401 0.0043343715          270    5.6030718    847.26908    1.0197469 
   38100   0.72831761   -6.9383032    1.8319748  0.004006944 0.0043290839          269    5.3287903    847.70528    1.0192222 
   38200   0.75070186   -6.8983073    1.8412998 0.0040167971 0.0043238658          296    5.7572271    845.34514    1.0220677 
   38300   0.75020847   -6.8310626    1.8500979 0.0040254523 0.0043191865          306    6.2364665    843.65688     1.024113 
   38400   0.73107274   -6.9124159    1.8375324 0.0039877006 0.0043144785          289     5.799061    843.06926    1.0248268 
   38500   0.72300052    -6.925511    1.8435711 0.0039904136 0.0043093172          309    5.3257221    848.21635     1.018608 
   38600   0.73098789   -6.8794789     1.845731 0.0039847388 0.0043037307          314    5.6044941    848.03368    1.0188275 
   38700    0.7485768   -6.8803711    1.8351207 0.0039515949 0.0042983728          350    6.2229206     840.1206    1.0284238 
   38800   0.72039396   -6.8948915    1.8464056 0.0039656476 0.0042929398          359    5.9287023    842.78149    1.0251768 
   38900   0.76494563   -6.9355879    1.8554986 0.0039749326 0.0042876267          320    5.1892184    849.69113    1.0168401 
   39000   0.69850164   -6.8476344    1.8490791 0.0039510237 0.0042821771          313    5.8837332    846.39443    1.0208007 
   39100   0.76887904   -6.8816157    1.8468276 0.0039361203 0.0042765348          314    5.9148198    844.39372    1.0232194 
   39200   0.70836589   -6.8864301    1.8461296 0.0039245951 0.0042707453          315    5.8506737    843.74281    1.0240087 
   39300   0.71382785   -6.9007773    1.8560632 0.0039356726 0.0042649405          343     5.486913    847.32211    1.0196831 
   39400   0.75008262   -6.8973967    1.8694234  0.003953941 0.0042594875          379    5.5697584    847.30506    1.0197036 
   39500   0.73240893   -6.9370632    1.8639344  0.003932351 0.0042540358          368    5.7339905    842.64882    1.0253382 
   39600   0.73993237   -6.9496001    1.8469388 0.0038866556 0.0042480132          358    5.4335449    845.13555    1.0223212 
   39700   0.72350922   -6.8371167    1.8507769  0.003884922 0.0042417828          363    6.0823093    844.40508    1.0232056 
   39800   0.73876842   -6.8962152    1.8436635 0.0038602669 0.0042354023          360    5.9742446    841.86505    1.0262928 
   39900   0.73724943   -6.8910759    1.8378093 0.0038383653 0.0042287245          369    5.8519769    844.33008    1.0232965 
   40000   0.72050306   -6.9240847     1.868544 0.0038927999 0.0042222591          370    5.3570501    848.20928    1.0186165 
   40100    0.7298825   -6.9172215     1.875714 0.0038979924 0.0042165503          360    5.3991175    847.99961    1.0188684 
   40200   0.75639076   -6.8337946    1.8894792 0.0039168308 0.0042111451          364    5.8822509     847.4553    1.0195228 
   40300   0.79374327   -6.8909554    1.8803916 0.0038883201 0.0042060324          394    6.3232904    838.93522    1.0298769 
   40400   0.76050447   -6.9458049    1.8985645 0.0039161808 0.0042008711          423    6.0413415    838.12972    1.0308667 
   40500    0.7639195   -6.9982803     1.922235  0.003955216 0.0041962933          420    5.4591923    842.03257    1.0260886 
   40600   0.75128268   -6.9390327     1.912505 0.0039255028 0.0041916796          401    5.8796966    840.83643    1.0275482 
   40700   0.77174266   -6.8897411    1.9267732  0.003945072 0.0041871339          393    5.9039103    843.36527    1.0244671 
   40800   0.74826681   -6.9330092    1.9266804 0.0039352132 0.0041829717          417    5.7555895    842.40559    1.0256342 
   40900   0.75799351   -6.9801155    1.9155794 0.0039029734 0.0041782487          422     5.668952    840.75858    1.0276434 
   41000   0.74344805   -6.9658642    1.8936443 0.0038488704 0.0041727864          433    6.0477024    836.09208     1.033379 
   41100   0.72846105   -7.0249541    1.8970215 0.0038463534 0.0041669958          471    5.7728664    835.23043    1.0344451 
   41200   0.71469998     -6.96796    1.9404287 0.0039248154 0.0041620352          469    5.6809382    840.48759    1.0279747 
   41300   0.72833661   -6.9804673    1.9524065 0.0039394805 0.0041578784          452    5.3689303    843.65888    1.0241106 
   41400   0.72612912   -6.9712816    1.9534511 0.0039320674 0.0041536774          471    5.4282313     843.4842    1.0243227 
   41500   0.75504418   -7.0229097    1.9377726 0.0038911096 0.0041489428          494    5.5648073    838.98117    1.0298205 
   41600   0.72939778   -6.9676395    1.9383226 0.0038828577 0.0041440788          513    6.2985248    832.94407    1.0372845 
   41700   0.74573737    -6.963823    1.9507277 0.0038983367 0.0041395929          545     6.147109    835.88486    1.0336352 
   41800   0.78992927   -7.0248207    1.9575959 0.0039027032 0.0041353008          533    5.4699573    840.86623    1.0275118 
   41900   0.73743575   -7.0379874    1.9529883  0.003884225 0.0041308486          565    5.6995476    836.00417    1.0334877 
   42000   0.73279824   -6.9723197    1.9607137  0.003890305 0.0041263904          532    6.1115301    835.90359     1.033612 
   42100   0.73607694   -7.0114168    1.9750935 0.0039095279 0.0041219928          534    5.2084802    844.10277    1.0235721 
   42200    0.7120017   -6.9913357    1.9896706 0.0039290493  0.004117905          530    5.3537667    843.28549    1.0245641 
   42300   0.69882773   -7.0559838    1.9896334 0.0039196875 0.0041139453          565    5.3366269    838.73693    1.0301204 
   42400    0.7172893   -7.0267664    1.9999644 0.0039307477 0.0041100393          565    5.4366523    839.32513    1.0293985 
   42500   0.76487449   -7.0422782     2.006768 0.0039348392 0.0041063251          554     5.772079    835.35684    1.0342885 
   42600   0.71809401   -7.0237671    2.0202845 0.0039520431 0.0041031945          556    6.1409278    831.33953    1.0392866 
   42700   0.74020268   -7.0265862    2.0240894 0.0039502135 0.0041001141          550    5.6192181     837.6816    1.0314181 
   42800   0.72771384    -7.039432     2.056816 0.0040047039 0.0040974387          578    5.4945126    838.32228    1.0306299 
   42900   0.70712187   -7.1023571    2.0497964 0.0039817335 0.0040950378          602     5.560231    832.76841    1.0375033 
   43000   0.71234859   -7.0688376    2.0684636 0.0040086503 0.0040925829          587    5.2649498    839.01738     1.029776 
   43100    0.7330583   -7.0341501    2.0523321 0.0039681595 0.0040900193          589    5.4632519    839.29446    1.0294361 
   43200   0.73616247   -7.0922564    2.0581032 0.0039701064 0.0040872681          631    5.6713578     832.9717    1.0372501 
   43300   0.73941286   -7.0972453     2.053311 0.0039517148 0.0040845895          648     6.019554    827.80885    1.0437192 
   43400   0.72455666   -7.0820191    2.0619677 0.0039592314 0.0040818427          701    6.1332291    827.28764    1.0443768 
   43500   0.75523288   -7.1459619    2.0890917 0.0040020913 0.0040797293          705    5.4833725    831.70196    1.0388337 
   43600   0.71593853   -7.1707053    2.0942588 0.0040027882  0.004077742          735    5.5128595    828.41107    1.0429605 
   43700   0.72121868   -7.1483119    2.1196615 0.0040420699 0.0040762211          733    5.7210029    827.71464     1.043838 
   43800   0.73302141   -7.1014769    2.1134951 0.0040211093 0.0040747869          735    6.1517134    825.69983    1.0463851 
   43900   0.72770174   -7.1988345    2.1145777 0.0040140046 0.0040733088          720    5.4872072    827.16162    1.0445359 
   44000   0.71058185   -7.1713243    2.1295055 0.0040331542 0.0040716727          729    5.7170027    826.34217    1.0455717 
   44100   0.71686712   -7.1888574    2.1472924 0.0040576198 0.0040706571          750    5.3594355    829.23607    1.0419228 
   44200   0.72225855   -7.1730631    2.1513156 0.0040560248 0.0040693995          778     5.287964    831.37789    1.0392386 
   44300   0.71396379   -7.2389673     2.178732 0.0040984425 0.0040687772          788    5.4806494     824.4149     1.048016 
   44400   0.75481312   -7.2450606    2.1684204 0.0040698581 0.0040680834          800    5.6529826     822.7537     1.050132 
   44500   0.76496258   -7.1885483    2.1663252 0.0040567887 0.0040674264          778    5.8261291    823.98038    1.0485687 
   44600   0.74825677   -7.1802749    2.1676969 0.0040502558 0.0040664679          800    6.1095427    821.12604    1.0522136 
   44700   0.74326923   -7.2324872    2.1804355 0.0040649431 0.0040658176          805    5.6673797    822.90222    1.0499425 
   44800    0.7653884   -7.2073929    2.1775405 0.0040504845 0.0040650178          798    5.7525592    823.99357    1.0485519 
   44900   0.70584637   -7.2378512    2.1811945 0.0040482451 0.0040638298          789    5.2296542    827.43387    1.0441922 
   45000   0.70659517   -7.1956568    2.1970875 0.0040686805 0.0040629269          797    5.4757802    827.30154    1.0443592 
   45100   0.72830087   -7.1673445    2.1896475 0.0040459118 0.0040619944          813    5.8700593    824.73848    1.0476048 
   45200    0.7237713   -7.2433271    2.1692932 0.0039994342 0.0040605786          818    5.8711571    819.65993    1.0540957 
   45300   0.71573014   -7.2461623      2.17539 0.0040018211 0.0040588065          811     5.640661     822.1771    1.0508685 
   45400    0.7252859   -7.2047859    2.1923834 0.0040241985 0.0040572211          809    5.3900793    828.28034    1.0431251 
   45500   0.76324841   -7.2343165     2.193207 0.0040168626 0.0040556787          816    5.4672279    825.62202    1.0464837 
   45600   0.72688275   -7.2385103    2.2033772 0.0040266395  0.004054412          810    5.5257911    824.12008    1.0483909 
   45700   0.73474655   -7.3054553    2.2079234 0.0040261184 0.0040530674          813    5.1068999    825.12465    1.0471145 
   45800   0.74359185   -7.2642512    2.2063553 0.0040144746 0.0040516726          820    5.7099756     820.9986    1.0523769 
   45900     0.767619   -7.1829008    2.2040341 0.0040015144 0.0040504763          814    6.4376955    817.73841    1.0565726 
   46000   0.73284014   -7.2404022     2.219163 0.0040202228 0.0040493709          826    5.6772105     822.1642     1.050885 
   46100   0.68954121   -7.2651695    2.2195794 0.0040122549 0.0040481006          820    5.5091604     822.0743    1.0509999 
   46200   0.72744906   -7.2826206    2.2428959 0.0040456274 0.0040468923          806    5.2813255    824.23281    1.0482475 
   46300   0.73018721   -7.2396035    2.2409961 0.0040334702 0.0040458866          812    6.0406422    818.34407    1.0557906 
   46400   0.71444015   -7.2552723     2.246661 0.0040349515  0.004045011          806    5.8570454    818.77248    1.0552382 
   46500   0.73331029    -7.287654    2.2654077 0.0040598704 0.0040440223          818    5.5833846    820.31918    1.0532486 
   46600   0.72229101   -7.3456711    2.2826785  0.004082043 0.0040437583          825    5.5578692    816.67851    1.0579438 
   46700   0.72024127     -7.31068    2.2805979 0.0040695894 0.0040434839          818     5.881327    814.99704    1.0601265 
   46800   0.71681895   -7.2621256    2.2839064 0.0040667849 0.0040431007          830     6.185981    814.70867    1.0605018 
   46900   0.77657811   -7.3267688    2.2825537 0.0040557101 0.0040427694          845    5.3434263    820.88033    1.0525286 
   47000   0.70684244   -7.3091983    2.2582834 0.0040040485 0.0040416285          851     5.497759    819.49378    1.0543094 
   47100   0.74923158    -7.369041    2.2635883 0.0040049332 0.0040402992          848    5.3937823    817.64608    1.0566919 
   47200   0.74116425    -7.384965    2.2542783  0.003980011 0.0040387503          850    5.6870251    813.05509    1.0626586 
   47300    0.7003705   -7.2715463    2.2497314 0.0039635859 0.0040369763          847    6.3876979    811.57103    1.0646018 
   47400   0.73878414   -7.3203534    2.2628713  0.003978325 0.0040352893          842    5.5974419    817.99562    1.0562404 
   47500   0.72551371   -7.3676704     2.275363 0.0039918649  0.004033693          850    4.9601925    822.49851    1.0504578 
   47600   0.73265153   -7.3209238    2.2830364 0.0039969125 0.0040321005          848    5.3298331    821.13298    1.0522047 
   47700   0.74695966   -7.3159529    2.2952499 0.0040098706 0.0040308742          847    5.8586312    815.70766     1.059203 
   47800   0.70836157   -7.2885428    2.2981211 0.0040064872 0.0040297836          848    6.0553603    814.61589    1.0606226 
   47900   0.72812477   -7.3097638    2.2921077 0.0039876613 0.0040284758          845    5.6901726    817.47961    1.0569071 
   48000   0.70550337    -7.350006    2.2770786 0.0039532614 0.0040266669          845    5.4662942    817.25954    1.0571917 
   48100   0.73924219   -7.3528921    2.2754836 0.0039422793 0.0040246408          846    5.4163788    818.26615    1.0558912 
   48200   0.74947972   -7.2894172     2.266825 0.0039191303 0.0040224321          842    5.9672846    815.65581    1.0592703 
   48300   0.74092466   -7.3310452    2.2738015  0.003923053 0.0040201254          839    6.0127801     812.5631     1.063302 
   48400   0.74248987   -7.3575308    2.2659623 0.0039014502 0.0040177116          841     5.488909    817.10974    1.0573855 
   48500   0.73646276   -7.3328542    2.2607433 0.0038844386 0.0040150044          847    5.5579783    817.81447    1.0564743 
   48600   0.72294075   -7.3116694    2.2501091 0.0038582116 0.0040119549          853    5.8806308    815.42649    1.0595682 
   48700   0.71053251   -7.3686958    2.2819346 0.0039047478 0.0040091789          844    5.5539824    815.49337    1.0594813 
   48800   0.72077269   -7.2844122    2.2917363 0.0039134841 0.0040067803          834    5.7757234    818.46459    1.0556352 
   48900   0.75436665   -7.3291525    2.2967598 0.0039140419 0.0040045734          845     5.689962    816.87405    1.0576906 
   49000   0.72413503    -7.342515    2.2923342 0.0038985276 0.0040023104          844    6.0435008    811.36116    1.0648772 
   49100   0.76413888   -7.3388565    2.2810362 0.0038714125 0.0039997257          844    5.8004532    814.80262    1.0603795 
   49200   0.75040115   -7.3026766    2.2702817  0.003845328 0.0039968118          845    5.9162368    815.80184    1.0590807 
   49300   0.72301571   -7.3751155    2.2691968 0.0038356943 0.0039936144          837    5.2850294    817.64814    1.0566892 
   49400   0.72180718   -7.3206469    2.2862917 0.0038567673 0.0039904119          850    5.2908951    821.50846    1.0517238 
   49500   0.73496894   -7.3358428    2.2917866 0.0038582265 0.0039873907          847    5.2925106    820.59747    1.0528914 
   49600    0.6883839   -7.2961178    2.2734786 0.0038196884 0.0039842725          842    6.1413275    813.06806    1.0626417 
   49700   0.75352326   -7.3423857    2.2661457 0.0037997077 0.0039807354          853    5.3627169    819.89818    1.0537894 
   49800   0.72769371   -7.3044039    2.2602955 0.0037822883 0.0039770001          852    5.6912108    817.76698    1.0565357 
   49900   0.70569268   -7.3155803    2.2580851 0.0037710172 0.0039730937          837    5.8497103    815.34225    1.0596777 
   50000   0.76501234   -7.3236805    2.2688546 0.0037814243 0.0039691399          844    5.5441942    818.86624    1.0551174 
   50100   0.71245399   -7.3339111    2.2719462  0.003779019 0.0039653825          844    5.4417459    818.83622    1.0551561 
   50200   0.70556989   -7.3553373    2.2740629 0.0037750047 0.0039614342          845    5.1939246    820.16909    1.0534413 
   50300   0.72047794   -7.3627221    2.2910662 0.0037956697 0.0039577151          852    5.1336739    820.38153    1.0531685 
   50400   0.74837337   -7.2986549    2.2994388 0.0038019821 0.0039543678          850    5.4553819    821.20523    1.0521121 
   50500   0.74390803   -7.2910468    2.3101608 0.0038121465  0.003951244          840    5.7183815     818.5466    1.0555294 
   50600   0.74967989   -7.3262423    2.3077836 0.0038006975 0.0039481776          844     5.939202    814.00394    1.0614199 
   50700   0.72815104   -7.3220592    2.2983753 0.0037777372 0.0039448091          848    6.0318027     812.7442    1.0630651 
   50800   0.73601665   -7.2661069    2.3025123 0.0037770871 0.0039414723          843    5.8606572    818.18127    1.0560007 
   50900   0.72885868   -7.2971327    2.2865644 0.0037435566 0.0039376554          843    5.4437126    821.05866       1.0523 
   51000   0.71175888   -7.3191544    2.2680004  0.003705883 0.0039334172          847    5.7001301    816.87678    1.0576871 
   51100   0.73087487   -7.3466976    2.2744974  0.003709226 0.0039290205          832     5.620255    816.43949    1.0582536 
   51200   0.75884988   -7.2958002    2.2537059  0.003668141 0.0039246202          837    5.9853146    815.50894    1.0594611 
   51300   0.77279455   -7.2619703    2.2470263 0.0036501401 0.0039197153          835    5.8982447    818.72491    1.0552995 
   51400    0.7206305    -7.342827    2.2480342 0.0036446728 0.0039146889          840    5.3491064    819.27879    1.0545861 
   51500   0.74209409    -7.339404    2.2504804  0.003641554 0.0039097208          846    5.5424082     817.7564    1.0565494 
   51600    0.7105898   -7.3637269    2.2562736 0.0036438527 0.0039046512          850    5.5204703    816.06931    1.0587336 
   51700    0.7179573   -7.3176548    2.2569817  0.003637946 0.0038997618          856    6.0805949    812.47384    1.0634188 
   51800   0.73098375   -7.3027583    2.2909137  0.003685511 0.0038952865          854    5.9042003    815.52874    1.0594354 
   51900    0.6892937   -7.3477386    2.2947539  0.003684576 0.0038910392          861    5.3696609    818.29602    1.0558526 
   52000   0.71701454   -7.3916828    2.3000751 0.0036860177 0.0038867757          862    5.1718173    818.25126    1.0559104 
   52100   0.72434022   -7.3258122    2.2749216 0.0036387101 0.0038821714          860    5.6207105    817.35129     1.057073 
   52200   0.73863179   -7.3552563    2.2960798 0.0036655169 0.0038775533          852    5.2970041     819.2856    1.0545773 
   52300   0.70125253   -7.3547145    2.3043807 0.0036717347 0.0038733256          858    5.6991815    814.66614    1.0605571 
   52400   0.72217015    -7.376116    2.2898891 0.0036416811 0.0038688044          851    5.3684773    817.10069    1.0573972 
   52500   0.75263157   -7.3668918    2.3085014 0.0036642879 0.0038644464          851     5.696163     814.5099    1.0607606 
   52600    0.7257419   -7.3791254    2.2825757 0.0036162479 0.0038600881          855    6.1035016    809.03685    1.0679365 
   52700   0.77173189   -7.4257467     2.277667 0.0036016239 0.0038550923          857    5.4871193    813.58442    1.0619672 
   52800    0.7397103   -7.3140583    2.2880011 0.0036111129 0.0038503962          852    5.8004503    816.81283    1.0577699 
   52900   0.72504929   -7.3741046    2.3028906 0.0036277419  0.003845759          853    5.4752778    816.41974    1.0582792 
   53000   0.73519312   -7.3705701    2.2988847 0.0036145986 0.0038411976          855    5.7231455    813.63566    1.0619004 
   53100   0.68708575    -7.383302    2.2939933 0.0036001149 0.0038365541          855    5.7874713    811.85569    1.0642285 
   53200   0.71972199   -7.3990794    2.3041752  0.003609297 0.0038319008          856    5.5161045    814.07969    1.0613212 
   53300   0.73719924   -7.3674298     2.312963 0.0036162649 0.0038273201          859    5.6400287     815.1128     1.059976 
   53400   0.72852067   -7.3594165    2.3093288 0.0036038214  0.003822762          854    5.6135763    815.54361    1.0594161 
   53500   0.69336273   -7.3342156    2.3165058 0.0036082645  0.003818279          852    5.6343307    816.53446    1.0581305 
   53600   0.75368347   -7.3723562    2.2893903 0.0035593754 0.0038134499          855     5.364539    818.20251    1.0559733 
   53700   0.69982093   -7.3754096    2.2857664 0.0035471236 0.0038081784          850    5.6031472    814.79536    1.0603889 
   53800   0.71825028   -7.3670295    2.2898682 0.0035468838 0.0038030831          856    5.6112578    815.01273    1.0601061 
   53900   0.70719305   -7.4086747    2.2996171 0.0035553758 0.0037980124          855    5.3409462    815.13613    1.0599457 
   54000   0.71881706   -7.3818331    2.3062073 0.0035589619 0.0037931026          856    5.9358561     810.3862    1.0661583 
   54100   0.73147774    -7.331693    2.3090672 0.0035567886  0.003788451          857    6.1053895    812.04335    1.0639826 
   54200   0.69325296   -7.3716469    2.3193095  0.003565974 0.0037838294          856    5.7804855    812.74806    1.0630601 
   54300   0.71682814   -7.4106931    2.3154575 0.0035534952 0.0037791193          850    5.2578315    816.21808    1.0585406 
   54400    0.7347431   -7.3624976    2.3203274 0.0035544231 0.0037743033          856    5.3798169    818.11359    1.0560881 
   54500   0.73003338   -7.3513223    2.3158854 0.0035411091 0.0037697183          855    5.8734164    813.37513    1.0622405 
   54600   0.73323374   -7.3742727    2.2839298 0.0034858514 0.0037646295          854    5.7921402    812.68934    1.0631369 
   54700   0.72016045   -7.3882922    2.2787611 0.0034716043 0.0037590642          855    5.6258163    813.49866    1.0620792 
   54800   0.74112772   -7.3993346    2.2844561 0.0034739296 0.0037535272          846    5.4890014    814.58249    1.0606661 
   54900   0.73898135   -7.3226328    2.3007944 0.0034924018 0.0037483193          858    6.1039958    812.45188    1.0634476 
   55000   0.72895039   -7.3742244    2.3084586 0.0034976645 0.0037433001          845    5.9991657     810.6592    1.0657993 
   55100   0.74518264   -7.4089362    2.3269324 0.0035192565 0.0037384816          852    5.7965174    810.91358     1.065465 
   55200   0.78123657   -7.3816093    2.3389107 0.0035309641 0.0037339407          847    5.5828173    815.27556    1.0597644 
[...]
   89400   0.71555465   -7.4594408     2.339719 0.0021809461  0.002072496          861    5.3442299     812.5045    1.0633787 
   89500   0.73718375   -7.4075882    2.3289264 0.0021684604 0.0020689669          856    5.4566746    814.57909    1.0606705 
   89600   0.75237387   -7.4446402      2.32816 0.0021653273 0.0020653322          850     5.409303    813.22619     1.062435 
   89700   0.70912143   -7.4449934    2.3198085 0.0021551547 0.0020617696          856    5.8536849    807.65906    1.0697583 
   89800   0.74993503   -7.4278148    2.3139038 0.0021472752 0.0020581245          856     5.600496    811.80947    1.0642891 
   89900   0.73714858   -7.3839276    2.3363005 0.0021656474 0.0020545616          857    5.8331504    811.92905    1.0641324 
   90000   0.73079518   -7.4418368    2.3399609 0.0021666304 0.0020511515          855    5.5167457    811.94365    1.0641133 
   90100    0.7031421   -7.4222983    2.3264601 0.0021517389 0.0020476292          852    5.7945047    809.58333    1.0672157 
   90200   0.75106278   -7.4402879    2.3232322 0.0021463712 0.0020440662          846    5.4230108    813.29185    1.0623493 
   90300    0.7318931   -7.4308509     2.334585 0.0021544712 0.0020405429          851    5.6377643    811.16207    1.0651386 
   90400   0.72701514   -7.4369339    2.3408608 0.0021578731 0.0020371289          852    5.7519382    809.57776     1.067223 
   90500   0.75509516   -7.3910117    2.3421167 0.0021566452 0.0020336902          851    5.8612405    811.02468     1.065319 
   90600   0.72948663   -7.3985632    2.3572983 0.0021682287 0.0020303641          851     5.619748    813.32169    1.0623103 
   90700   0.74266738   -7.4781423       2.3357 0.0021459941 0.0020269995          853    5.5122445     809.7203    1.0670351 
   90800   0.71954415   -7.4349055    2.3413657 0.0021488305 0.0020235318          849    5.4582728    812.53438    1.0633396 
   90900   0.72607137   -7.4000729    2.3447471 0.0021495665 0.0020202028          851    5.6296686    812.89507    1.0628678 
   91000   0.70884842   -7.4068689    2.3134396 0.0021185344 0.0020166908          847     5.661048    812.02659    1.0640046 
   91100   0.71902715   -7.4537994    2.3208648 0.0021230011 0.0020131457          850    5.7678311    808.05993    1.0692276 
   91200   0.75078923   -7.4043948    2.3238667 0.0021234162 0.0020096664          857    6.0089624    808.81859    1.0682247 
   91300   0.72965149   -7.3741118     2.319231 0.0021168593 0.0020062087          851    5.8894464    811.83044    1.0642616 
   91400   0.71838975   -7.4105937     2.341703 0.0021350319 0.0020027654          852    5.3991478    814.78095    1.0604077 
   91500   0.68852327   -7.4124446    2.3546673 0.0021445057 0.0019994413          848    5.1346682    817.70025    1.0566219 
   91600   0.72772407   -7.3762073    2.3430295 0.0021315771 0.0019961014          854    5.5875662    814.78879    1.0603975 
   91700   0.71821967   -7.4060271     2.346888  0.002132759 0.0019928177          848     5.644037    812.21916    1.0637523 
   91800   0.71774215   -7.4391667    2.3529635 0.0021359508 0.0019895225          851    5.4688825    812.35286    1.0635772 
   91900   0.74388646   -7.4211935    2.3375921 0.0021196881 0.0019862193          857    5.6922017    811.19927    1.0650897 
   92000   0.77887631   -7.3826087    2.3148525 0.0020967867 0.0019828734          851     6.350903    806.52468    1.0712629 
   92100   0.75386055   -7.4638222    2.3111445  0.002091155 0.0019793997          850    5.6870148    808.84675    1.0681875 
   92200   0.73207641   -7.4573103    2.3175507  0.002094677 0.0019759126          854    5.2796366    813.39796    1.0622107 
   92300   0.73927505   -7.3683671     2.341805 0.0021143057 0.0019725886          851    5.6698851    814.57526    1.0606755 
   92400   0.74355168   -7.4153013    2.3374928 0.0021081284 0.0019692955          853    5.8307851    810.13578    1.0664879 
   92500   0.72521007   -7.4239358    2.3242653 0.0020939327 0.0019659726          855     5.847527    809.13154    1.0678115 
   92600   0.73989053   -7.3748163    2.3382587 0.0021042645  0.001962648          849    5.9814908     810.9163    1.0654614 
   92700   0.74275821   -7.3975123    2.3341829 0.0020983305 0.0019593939          850    5.8371514    811.08554    1.0652391 
   92800   0.74243931   -7.4370332    2.3145095 0.0020784029 0.0019560404          853    5.8477296    808.35221     1.068841 
   92900   0.74588624   -7.4160813    2.3325645 0.0020923614 0.0019527079          854    5.8529062    809.96666    1.0667106 
   93000   0.77523082   -7.3979439    2.3283673 0.0020863506 0.0019493905          859    5.7001854    812.96038    1.0627824 
   93100   0.71252535   -7.4099078    2.3396117 0.0020941745 0.0019461593          858    5.6521643    812.21624    1.0637561 
   93200   0.72342132    -7.457037    2.3278254 0.0020813889 0.0019428631          858    5.2585305    813.45397    1.0621375 
   93300   0.73985317   -7.4529669    2.3261608 0.0020776713 0.0019395287          857    5.3592376    812.88855    1.0628763 
   93400   0.73446862   -7.3576456    2.3392721  0.002087145 0.0019362825          850    6.4386122    806.92342    1.0707336 
   93500   0.76200336   -7.3982021    2.3370426 0.0020829257 0.0019331447          856    6.2344726    806.72507    1.0709968 
   93600   0.69656139   -7.4282822    2.3323711 0.0020765412 0.0019299277          861    5.6469441    810.48562    1.0660276 
   93700   0.74095513   -7.4192799    2.3318232 0.0020738378  0.001926664          855    5.1426124    817.13045    1.0573587 
   93800   0.71876534   -7.3816406    2.3520952 0.0020896368 0.0019234726          852    5.4126888     816.2257    1.0585307 
   93900   0.73245664   -7.4367815    2.3329601 0.0020704296 0.0019203047          857    5.6424943    811.08148    1.0652444 
   94000   0.71314548   -7.4216924    2.3254082 0.0020615321 0.0019170877          862    6.2167814    805.17873    1.0730537 
   94100   0.73122674   -7.3910698    2.3246112 0.0020586354 0.0019138612          859    5.8693426    810.80028    1.0656138 
   94200   0.71274656   -7.4064789     2.348888 0.0020779264 0.0019106856          859    5.3454724      815.437    1.0595546 
   94300   0.75960566   -7.4283975    2.3393048 0.0020672542 0.0019075353          859    5.3159186    815.06904    1.0600329 
   94400   0.74456203   -7.3892787    2.3305459 0.0020573321 0.0019043414          860    5.8856524    811.04052    1.0652982 
   94500    0.7249184   -7.4421575    2.3193927 0.0020453198 0.0019011101          860    5.6233983    810.30124    1.0662701 
   94600   0.73447987   -7.3974336    2.3277239 0.0020504968 0.0018978978          860    5.8125988    810.92868    1.0654451 
   94700   0.75899002   -7.4022168    2.3393342 0.0020585482 0.0018947302          855    5.6608489    812.58546    1.0632728 
   94800   0.71254824   -7.3832715    2.3377716 0.0020550032 0.0018916298          859    5.8626187    810.98107    1.0653763 
   94900   0.72980487   -7.4310196    2.3273764 0.0020437095 0.0018884583          860    5.4343221    813.19087    1.0624812 
   95000   0.71357606   -7.4219134    2.3252491 0.0020396922 0.0018852525          861    5.4723129    812.85802    1.0629163 
   95100   0.71173011   -7.3574837    2.3185603 0.0020316862 0.0018820518          859     6.165862    809.25667    1.0676464 
   95200   0.71477097   -7.3878722    2.3306759 0.0020401575 0.0018788523          859    6.0573071    808.77606    1.0682809 
   95300   0.76603594   -7.4618695    2.3382837 0.0020446692 0.0018757716          858    5.4178664    811.88753    1.0641868 
   95400   0.71871494   -7.3853499    2.3257718 0.0020315966 0.0018726372          853    6.2243651    806.95568    1.0706908 
   95500   0.76119977   -7.4176574    2.3280224 0.0020314331 0.0018695608          855    6.1025554     806.7513     1.070962 
   95600   0.77640669    -7.404427     2.334569 0.0020350148 0.0018664755          858    5.6048995     813.5605    1.0619985 
   95700   0.72882943   -7.4222883    2.3267414 0.0020260722  0.001863375          854    5.4058833    814.15441    1.0612238 
   95800   0.69822024   -7.4286041    2.3356937 0.0020317447 0.0018602812          852    5.3794142    813.78425    1.0617065 
   95900   0.71266661   -7.4081591     2.325899 0.0020211149 0.0018571569          853    5.4989173    813.86735    1.0615981 
   96000   0.73517227   -7.3611241    2.3508653 0.0020406816 0.0018541041          855    5.3374013    818.68781    1.0553473 
   96100    0.7513094   -7.4146494    2.3401564  0.002029272  0.001851114          854    5.9648964    808.86773    1.0681598 
   96200   0.73191177    -7.409778    2.3406982 0.0020276318 0.0018481089          854    5.8881901    809.52216    1.0672963 
   96300   0.76367369   -7.4274952    2.3278745 0.0020144293 0.0018451081          854    5.5694471    812.26546    1.0636917 
   96400   0.73874763   -7.4096087    2.3155077 0.0020016491 0.0018419953          859    5.8108357    810.25819    1.0663268 
   96500   0.71821546   -7.4381927    2.3187553 0.0020023794 0.0018388502          860    5.6080771    810.56178    1.0659274 
   96600   0.72876276   -7.3991057    2.3287196 0.0020089024 0.0018357542          860    5.7244726    811.80204    1.0642989 
   96700   0.74104124    -7.347178    2.3214509 0.0020005609 0.0018327265          856    6.0812571    811.36264    1.0648753 
   96800   0.75425504   -7.3861247     2.329822 0.0020057007 0.0018296891          857    5.5799133    814.43449    1.0608588 
   96900   0.71847018    -7.433744    2.3219964 0.0019969009 0.0018266331          859    5.3734567    813.55456    1.0620062 
   97000   0.72657644   -7.4505676    2.3369749 0.0020077104 0.0018235817          861    5.4914774    811.07793    1.0652491 
   97100   0.69264852   -7.3723272    2.3538719 0.0020201441 0.0018206795          860    5.7319152    813.11123    1.0625853 
   97200   0.76616462   -7.4026836    2.3188217 0.0019880159 0.0018177229          861    6.1173366     807.5283    1.0699315 
   97300   0.71838517   -7.4177738     2.319465 0.0019865237 0.0018146653          855    5.7149123    810.72428    1.0657137 
   97400   0.73367545   -7.4235892    2.3302065 0.0019936743  0.001811615          860    5.0828146    817.77031    1.0565314 
   97500   0.74900293   -7.4206954    2.3376452 0.0019979874 0.0018086419          857    5.1799606    816.85136      1.05772 
   97600   0.70773102   -7.3978208    2.3312793 0.0019905048 0.0018056787          859    6.0092322    808.60673    1.0685046 
   97700   0.75201987   -7.4177501    2.3282665 0.0019858977 0.0018026936          859    5.8987229    809.16176    1.0677717 
   97800   0.77064634   -7.3917356    2.3519721 0.0020040662 0.0017998087          859    5.6305177    813.99741    1.0614284 
   97900   0.74786162   -7.4527554    2.3354272 0.0019879359 0.0017969371          862    5.6097685    810.27911    1.0662992 
   98000    0.7352153   -7.4418081    2.3460937 0.0019949776 0.0017940379          860    5.5973094    810.95351    1.0654125 
   98100   0.75994071    -7.414045     2.346502 0.0019932908 0.0017911735          858    5.3047608     815.9284    1.0589164 
   98200   0.73383556   -7.3975049    2.3284749 0.0019759631 0.0017882526          861    5.6413093    812.89359    1.0628697 
   98300   0.74155513   -7.3931329    2.3267023 0.0019724502 0.0017853286          858     6.366526    805.02524    1.0732583 
   98400   0.68693142   -7.4170587    2.3139062 0.0019596089 0.0017823718          858    6.0687663    806.49147     1.071307 
   98500   0.70720908   -7.3833396     2.327151 0.0019688248 0.0017794272          862    5.6475172    813.42882    1.0621704 
   98600   0.71921538   -7.4288304    2.3471429 0.0019837246 0.0017765257          857    5.1714709    816.03711    1.0587754 
   98700   0.71587896   -7.4454747    2.3471108 0.0019816876 0.0017737004          857    5.4567539     811.6311     1.064523 
   98800   0.70757415   -7.3808275    2.3304355  0.001965617 0.0017708486          861    6.0186263    809.34701    1.0675273 
   98900   0.72055397   -7.3754524    2.3390583 0.0019708951 0.0017679706          853    5.8304775    812.06935    1.0639485 
   99000   0.72666624   -7.4083951    2.3342239 0.0019648349 0.0017651411          854    5.4361843    814.38576    1.0609223 
   99100   0.73925731     -7.46699     2.332464 0.0019613724 0.0017622419          863    5.3207424     812.4786    1.0634126 
   99200    0.7261752   -7.4414051    2.3246704 0.0019528481  0.001759369          858    5.8649097    807.67867    1.0697323 
   99300   0.76377504   -7.4122507    2.3433869 0.0019665886  0.001756541          858    5.8179259    810.58545    1.0658963 
   99400   0.74344965    -7.415002    2.3335048 0.0019563253 0.0017537199          856      5.90393    809.12965     1.067814 
   99500   0.71756854    -7.411954    2.3354614 0.0019559978 0.0017509412          857    5.8455828    809.43633    1.0674095 
   99600   0.75082304   -7.4585375    2.3291178 0.0019487264 0.0017480784          860    5.1840141    814.58002    1.0606693 
   99700   0.73159955   -7.4124401    2.3294486 0.0019470483 0.0017452126          855    5.6693627    811.87413    1.0642044 
   99800   0.74178815   -7.4220757    2.3221939 0.0019390397 0.0017423806          856    5.8378051    809.58195    1.0672175 
   99900    0.7170329   -7.4047545    2.3214112 0.0019364457  0.001739482          854    5.9156944    809.77374    1.0669647 
  100000   0.72246001    -7.431783    2.3432415 0.0019527013 0.0017366444          860    5.5137246    812.24157    1.0637229 
  100100   0.70194411   -7.4477408    2.3504938 0.0019567881 0.0017339136          854    5.1483931     815.3081    1.0597221 
  100200   0.71560365   -7.3797294     2.336253 0.0019429915 0.0017311299          855    5.5420051    814.98892    1.0601371 
  100300   0.75090368   -7.4133183    2.3231639 0.0019301794  0.001728319          848    5.6695584    812.16447    1.0638239 
  100400   0.75246971   -7.4676472    2.3141173 0.0019207481 0.0017254564          851    5.9477935    805.51515    1.0726055 
  100500   0.70205046    -7.386502    2.3159363 0.0019203452 0.0017226448          860    6.1069973    808.04125    1.0692523 
  100600   0.77182826   -7.4372492     2.315376 0.0019179721 0.0017197881          860    5.4371392    813.31668    1.0623168 
  100700   0.73373408   -7.4451982    2.3196288 0.0019195869 0.0017169325          858    5.4407684    812.26036    1.0636983 
  100800   0.68240718   -7.3876077    2.3216692 0.0019193694 0.0017140941          858    5.9167858    809.84755    1.0668675 
  100900   0.76666164   -7.4562216    2.3243337 0.0019196678 0.0017112607          860    5.3961605    812.57151     1.063291 
  101000   0.74879233   -7.4485141    2.3230027 0.0019166689 0.0017084858          859    5.2635456     814.4014    1.0609019 
  101100   0.73037717   -7.4189306    2.3190033 0.0019114765 0.0017056578          855    5.8235156    809.71753    1.0670388 
  101200    0.6976373   -7.4494816    2.3256983 0.0019151007 0.0017028585          850    5.7150103    808.59421    1.0685211 
  101300   0.73481522   -7.4681708    2.3476653 0.0019312811 0.0017001626          851    5.3338344    812.32469    1.0636141 
  101400   0.74938316   -7.3952989    2.3357547  0.001919588  0.001697484          854     5.987708    809.92496    1.0667655 
  101500   0.73571116   -7.3979127    2.3567352 0.0019349222 0.0016948434          856    5.8855352    810.70324    1.0657414 
  101600   0.71962431   -7.4520472    2.3571106 0.0019333256  0.001692241          859    5.4557841    811.33142    1.0649162 
  101700   0.72407572   -7.4382201     2.339808 0.0019172468 0.0016896314          859    5.9224419    807.45759    1.0700252 
  101800    0.7521356   -7.4347476    2.3204817  0.001899543  0.001686922          853    5.6816501     810.4067    1.0661314 
  101900   0.68800737   -7.4103757    2.3113896 0.0018902434 0.0016841249          857    5.4138188    814.16988    1.0612036 
  102000   0.73331228   -7.4450711     2.307914 0.0018855507 0.0016812843          855    5.1901197    814.94098    1.0601995 
  102100   0.72048722    -7.416719    2.2999049 0.0018771669 0.0016784616          857     5.645648    811.81536    1.0642814 
  102200   0.76269536   -7.4291491    2.3059389 0.0018802502 0.0016756296          858    5.4697939    813.15912    1.0625227 
  102300   0.72930553   -7.3966837    2.3271351 0.0018956786 0.0016729031          860    5.9746148    809.09462    1.0678603 
  102400    0.7388336   -7.4710363    2.3287618 0.0018951512 0.0016702239          856    5.7088237    807.68563    1.0697231 
  102500   0.73386001   -7.3826236    2.3377304 0.0019005938 0.0016676066          848    5.9708662    810.07359    1.0665698 
  102600   0.72581919   -7.4389721    2.3436372  0.001903539 0.0016649877          857    4.9973483    817.29454    1.0571464 
  102700    0.7013916    -7.451741    2.3379622 0.0018970807 0.0016623835          857    5.7469535    808.27675    1.0689408 
  102800   0.73262183    -7.395878    2.3100784 0.0018726316 0.0016597148          860    6.2355049     806.3747    1.0714622 
  102900    0.7469305   -7.4075987    2.3125064 0.0018727781 0.0016570074          860    5.8765765    809.68437    1.0670825 
  103000   0.76648787   -7.3901932    2.3190871  0.001876284  0.001654317          859    5.6407019    813.78824    1.0617013 
  103100   0.75596537   -7.4402618     2.310696 0.0018676819 0.0016516051          855    5.5663881    811.51483    1.0646756 
  103200   0.74394627   -7.4735812    2.3252454 0.0018776206 0.0016489278          862    5.2671956    812.36653    1.0635593 
  103300   0.72091636   -7.4153612    2.3337047 0.0018826272  0.001646268          861    5.6072103    811.96199    1.0640892 
  103400   0.74357049   -7.3599081    2.3346115 0.0018815373 0.0016436884          863    5.8009609    813.48494    1.0620971 
  103500   0.72397471   -7.3877454    2.3186724  0.001866886 0.0016410714          862    6.0957365    808.34984    1.0688442 
  103600   0.71496816   -7.3995505    2.3292311 0.0018735771 0.0016384568          862    5.8463955    810.32148    1.0662435 
  103700   0.72693321   -7.3632987    2.3294882  0.001871977 0.0016358512          861    5.6196981    815.10828    1.0599819 
  103800   0.72289244   -7.4240505    2.3281607 0.0018691078  0.001633235          860    5.2084811    815.89295    1.0589625 
  103900   0.74285999   -7.4317519     2.324572 0.0018644305 0.0016306197          859    5.3697832    813.72143    1.0617884 
  104000   0.69638515   -7.4071802    2.3378112 0.0018732462 0.0016280463          861    5.8665872      809.364    1.0675049 
Loop time of 195.676 on 12 procs for 100000 steps with 864 atoms

Performance: 88309.135 tau/day, 511.048 timesteps/s
99.4% CPU use with 12 MPI tasks x no OpenMP threads

MPI task timing breakdown:
Section |  min time  |  avg time  |  max time  |%varavg| %total
---------------------------------------------------------------
Pair    | 9.8608     | 10.76      | 11.626     |  16.4 |  5.50
Neigh   | 1.0431     | 1.085      | 1.1339     |   2.6 |  0.55
Comm    | 7.4257     | 8.5403     | 9.6421     |  22.9 |  4.36
Output  | 2.4294     | 2.4304     | 2.4378     |   0.1 |  1.24
Modify  | 170.17     | 170.82     | 171.56     |   3.0 | 87.30
Other   |            | 2.04       |            |       |  1.04

Nlocal:        72.0000 ave          78 max          66 min
Histogram: 2 1 1 2 0 1 1 0 2 2
Nghost:        1649.75 ave        1689 max        1613 min
Histogram: 3 2 1 0 0 0 0 1 4 1
Neighs:        8762.17 ave       10053 max        7491 min
Histogram: 1 1 0 2 3 2 1 0 0 2
FullNghs:      17526.0 ave       19075 max       15996 min
Histogram: 2 1 1 2 0 1 1 0 2 2

Total # of neighbors = 210312
Ave neighs/atom = 243.41667
Neighbor list builds = 4753
Dangerous builds = 0

#clear
#
#next RN
#
#jump SELF



Total wall time: 0:03:16
