
units lj                  # Use reduced LJ style units
atom_style atomic         # Uncharged point particles
atom_modify map hash      # Needed for indexing of clusters etc
                          # Used to be able to find where atoms are in relation to each other.

# Define a lattice with which to populate the simulation cell. With units
# set to 'lj' the second argument to the lattice command is the reduced
# density rho* and the spacings are multiples of that required to acheive
# that density. Also define a simulation cell called 'box' in lattice units
# and fill it with atoms. Here we're creating a box which is ten lattice
# constants in each direction.
lattice fcc 1.0 spacing 1 1 1                 # All equal sizes - gives the right reduced density.
Lattice spacing in x,y,z = 1.5874011 1.5874011 1.5874011

region box block 0 6 0 6 0 6 units lattice # Defines a region, "box", in lattice units
create_box 1 box                              # Creates a simulation box as specified above,
Created orthogonal box = (0.0000000 0.0000000 0.0000000) to (9.5244063 9.5244063 9.5244063)
  2 by 2 by 3 MPI processor grid
                                              # with one type of atom
create_atoms 1 box                            # Creates particles on lattice points
Created 864 atoms
  using lattice units in orthogonal box = (0.0000000 0.0000000 0.0000000) to (9.5244063 9.5244063 9.5244063)
  create_atoms CPU = 0.001 seconds


# Set the mass of the first (and only) atom type.
mass 1 1.0

# Lennard-Jones interactions between particles, 3.5 sigma cut-off. Apply
# long range tail corrections to energy and pressure and set all coefficients
# to unity since we work in reduced units here. Note that this doesn't shift
# the potential such that it goes to zero at the cutoff. That would require
# pair_modify('shift', 'yes').
pair_style lj/cut  3.5      # non-GPU version
pair_modify tail  yes
pair_coeff 1  1  1.0  1.0   # Intearaction between 1 and 1 set with epsilon = 1 and sigma = 1

write_data data.*
System init for write_data ...
Neighbor list info ...
  update every 1 steps, delay 10 steps, check yes
  max neighbors/atom: 2000, page size: 100000
  master list distance cutoff = 3.8
  ghost atom cutoff = 3.8
  binsize = 1.9, bins = 6 6 6
  1 neighbor lists, perpetual/occasional/extra = 1 0 0
  (1) pair lj/cut, perpetual
      attributes: half, newton on
      pair build: half/bin/atomonly/newton
      stencil: half/bin/3d
      bin: standard

#############################
#   M E L T   S Y S T E M   #
#############################

velocity all create 2.4 2750902 mom yes dist gaussian # Assign velocities
                                                    # Temperature 2.4, random number seed, zero linear momentum
						                                                        # Gaussian distribution

timestep 0.002   # simulation timestep
thermo 100       # output thermodynamic data every 100 steps

# Define a fix  in this case with index 1 applied to all
# particles in the simulation. This fix is for simulations
# in the anisotropic NPT ensemble. Note that we use the MTK
# correction.
fix 1 all npt temp 2.4 2.4 0.1 iso 5.68 5.68 0.5 mtk yes tchain 5 pchain 5 # Use NPT ensemble
                                                                         # Set temperature and pressure and damping
                                                                         # Numbers of thermostats in chain and in barostat
run 1000         # run for 10000 steps
Per MPI rank memory allocation (min/avg/max) = 3.633 | 3.633 | 3.634 Mbytes
Step Temp E_pair E_mol TotEng Press Volume 
       0          2.4   -8.3859253            0    -4.790092     -2.24275          864 
     100    1.3007594   -6.4407842            0   -4.4919034    5.3582762    891.69205 
     200    1.5828213   -6.0796178            0   -3.7081338    6.4338598    907.46239 
     300    1.7629056     -5.73851            0   -3.0972122    5.5953229    954.02439 
     400    1.8733232   -5.2785237            0   -2.4717912    6.0585808    994.36537 
     500      2.02574   -4.9360708            0   -1.9009777    5.7478153    1042.8978 
     600    2.2112838   -4.6895875            0   -1.3765009    5.7138268    1079.0368 
     700    2.3146746   -4.4629638            0  -0.99497044    5.6088298    1118.0222 
     800    2.4734008     -4.39503            0   -0.6892229    5.7937797    1123.7282 
     900    2.4206618   -4.2767239            0  -0.64993368    5.5531987    1146.9555 
    1000    2.3618098   -4.2459295            0  -0.70731524    5.7000582    1143.3852 
Loop time of 0.196743 on 12 procs for 1000 steps with 864 atoms

Performance: 878303.715 tau/day, 5082.776 timesteps/s
99.4% CPU use with 12 MPI tasks x no OpenMP threads

MPI task timing breakdown:
Section |  min time  |  avg time  |  max time  |%varavg| %total
---------------------------------------------------------------
Pair    | 0.066505   | 0.085876   | 0.10802    |   5.0 | 43.65
Neigh   | 0.011718   | 0.014322   | 0.017689   |   1.9 |  7.28
Comm    | 0.052684   | 0.078196   | 0.10047    |   6.0 | 39.75
Output  | 0.00019981 | 0.00021432 | 0.00026936 |   0.0 |  0.11
Modify  | 0.016107   | 0.016465   | 0.016984   |   0.2 |  8.37
Other   |            | 0.001669   |            |       |  0.85

Nlocal:        72.0000 ave          80 max          66 min
Histogram: 2 1 2 2 1 0 2 0 0 2
Nghost:        1314.75 ave        1327 max        1295 min
Histogram: 1 0 0 2 3 0 0 1 2 3
Neighs:        6211.67 ave        7136 max        5326 min
Histogram: 2 0 0 2 1 4 1 0 0 2

Total # of neighbors = 74540
Ave neighs/atom = 86.273148
Neighbor list builds = 80
Dangerous builds = 2

# Equilibrate just above the melting temperature to avoid step fn in T

fix 1 all npt temp 1.25 1.25 0.1 iso 5.68 5.68 0.5 mtk yes tchain 5 pchain 5
run 1000
Per MPI rank memory allocation (min/avg/max) = 3.634 | 3.634 | 3.634 Mbytes
Step Temp E_pair E_mol TotEng Press Volume 
    1000    2.3618098   -4.2459295            0  -0.70731524    5.7000582    1143.3852 
    1100    1.8617945   -4.5967525            0    -1.807293    5.9593679    1083.5566 
    1200      1.66126   -5.0091582            0   -2.5201524    5.9308167    1028.0056 
    1300    1.4533368   -5.3154554            0   -3.1379734    5.5185254    997.93023 
    1400    1.3100587   -5.5224566            0    -3.559643    5.2858775     978.0358 
    1500    1.3306301   -5.7450087            0   -3.7513736    5.2687861    956.68836 
    1600    1.2302857    -5.777427            0   -3.9341343     5.385203    950.58576 
    1700    1.2545134   -5.8251615            0   -3.9455694    5.6370291    940.07281 
    1800    1.2669685   -5.8434457            0   -3.9451925    6.1076728    931.13358 
    1900    1.2975362   -5.8185374            0   -3.8744858    5.5765884    942.23221 
    2000    1.2225624   -5.8503078            0   -4.0185867    5.1330896    948.19804 
Loop time of 0.160302 on 12 procs for 1000 steps with 864 atoms

Performance: 1077962.525 tau/day, 6238.209 timesteps/s
99.8% CPU use with 12 MPI tasks x no OpenMP threads

MPI task timing breakdown:
Section |  min time  |  avg time  |  max time  |%varavg| %total
---------------------------------------------------------------
Pair    | 0.069389   | 0.076364   | 0.081978   |   1.6 | 47.64
Neigh   | 0.0099001  | 0.010635   | 0.011441   |   0.5 |  6.63
Comm    | 0.050397   | 0.056822   | 0.064311   |   2.0 | 35.45
Output  | 0.00017335 | 0.00017902 | 0.0002187  |   0.0 |  0.11
Modify  | 0.014214   | 0.014475   | 0.014631   |   0.1 |  9.03
Other   |            | 0.001827   |            |       |  1.14

Nlocal:        72.0000 ave          79 max          65 min
Histogram: 1 1 0 4 0 1 1 3 0 1
Nghost:        1466.08 ave        1476 max        1447 min
Histogram: 1 1 0 0 2 0 0 4 1 3
Neighs:        7466.67 ave        8131 max        6694 min
Histogram: 1 0 2 0 3 1 3 0 0 2

Total # of neighbors = 89600
Ave neighs/atom = 103.70370
Neighbor list builds = 67
Dangerous builds = 0


# Small amount of linear quench

fix 1 all npt temp 1.25 ${temp} 0.1 iso 5.68 5.68 0.5 mtk yes tchain 5 pchain 5
fix 1 all npt temp 1.25 0.8 0.1 iso 5.68 5.68 0.5 mtk yes tchain 5 pchain 5
run 2000
Per MPI rank memory allocation (min/avg/max) = 3.634 | 3.634 | 3.634 Mbytes
Step Temp E_pair E_mol TotEng Press Volume 
    2000    1.2225624   -5.8503078            0   -4.0185867    5.1330896    948.19804 
    2100    1.2481021   -5.8642678            0   -3.9942815    5.4085296    941.25414 
    2200    1.2220257   -5.9108989            0    -4.079982    5.7908393    929.20487 
    2300    1.1720549   -5.9267472            0   -4.1706997    6.2982311    918.63942 
    2400    1.1748798   -5.9853523            0   -4.2250723    5.9050223    920.21389 
    2500    1.1109952   -5.9945741            0     -4.33001    5.7756929    919.50062 
    2600    1.1098904   -6.0527597            0   -4.3898511    5.5335029    918.92264 
    2700     1.105035   -6.0634531            0   -4.4078191    5.5771105    917.57194 
    2800    1.0864859   -6.1525353            0   -4.5246927    5.4492528    912.68726 
    2900     1.079208   -6.1650478            0   -4.5481094    5.8331636    904.67854 
    3000   0.99638259   -6.1505008            0   -4.6576568    5.9619825    902.30994 
    3100    1.0457766   -6.1830489            0   -4.6161996    5.9817272    899.57016 
    3200   0.98875057   -6.2464184            0   -4.7650092    6.1375829    891.58045 
    3300   0.97592557   -6.3078752            0   -4.8456812    5.8883628    891.08373 
    3400   0.93017193    -6.366007            0    -4.972364    5.5278011    890.84676 
    3500   0.94622764   -6.3921465            0   -4.9744478    5.4900286    889.71724 
    3600   0.88411416   -6.4208482            0   -5.0962119    5.4098168    887.33455 
    3700   0.85675706   -6.4855502            0   -5.2019021    4.9987006     887.9039 
    3800   0.85064385   -6.5570503            0   -5.2825613    4.8186506    885.15839 
    3900    0.8683218   -6.5807044            0   -5.2797292    5.1664661    877.73267 
    4000   0.82582987   -6.5959919            0   -5.3586809    5.4985919    871.85226 
Loop time of 0.348283 on 12 procs for 2000 steps with 864 atoms

Performance: 992297.028 tau/day, 5742.460 timesteps/s
99.9% CPU use with 12 MPI tasks x no OpenMP threads

MPI task timing breakdown:
Section |  min time  |  avg time  |  max time  |%varavg| %total
---------------------------------------------------------------
Pair    | 0.15516    | 0.16954    | 0.18812    |   2.5 | 48.68
Neigh   | 0.017544   | 0.018862   | 0.020639   |   0.7 |  5.42
Comm    | 0.1064     | 0.12666    | 0.14135    |   3.1 | 36.37
Output  | 0.00037162 | 0.00038708 | 0.00047335 |   0.0 |  0.11
Modify  | 0.027946   | 0.028618   | 0.02932    |   0.2 |  8.22
Other   |            | 0.004215   |            |       |  1.21

Nlocal:        72.0000 ave          77 max          67 min
Histogram: 1 1 0 3 0 3 0 1 0 3
Nghost:        1564.67 ave        1580 max        1544 min
Histogram: 1 0 0 2 2 2 0 2 1 2
Neighs:        8190.00 ave        9360 max        7355 min
Histogram: 4 1 0 0 2 1 1 2 0 1

Total # of neighbors = 98280
Ave neighs/atom = 113.75000
Neighbor list builds = 113
Dangerous builds = 0

#############################
# F R E E Z E  S Y S T E M  #
#############################

# Define solid atoms. This closely follows ten Wolde  Ruiz-Montero and Frenkel  Faraday Discuss  1996  104  93-110
# Compute components of the per-atom q6 vector
compute q6 all orientorder/atom degrees 1 6 components 6 nnn NULL cutoff 1.3 # compute the Q6 parameter.
                                                                             # Use all neighbours within 1.3 unit cell.

# get number of connections
compute coord_number all coord/atom orientorder q6 0.5

# An atom is solid if it has 8 or more connections (of a possible 14)
variable is_solid atom c_coord_number>=8
group solid dynamic all var is_solid    # Must be dynamic to update
dynamic group solid defined

# do clustering
compute cluster solid cluster/atom 1.3 # Create a cluster where all atoms within are solid and max 1.3 units from another member

# define chunks one chunk per cluster
compute clus_chunks solid chunk/atom c_cluster nchunk every compress yes  # Says which atoms are in which chunk

# count the size of each chunk
compute size_chunks solid property/chunk clus_chunks count


# Find the maximum entry in the vector of chunk sizes
variable max_n equal max(c_size_chunks)


# Thermo style which includes this variable
# thermo_style custom step temp pe vol v_max_n

thermo ${N}  # Print the thermo information every 100 steps
thermo 100  

# Reset the npt fix at a lower temperature (below freezing)

compute myRDF all rdf 100
fix 2 all ave/time 1 50 100 c_myRDF[*] file pcf.rdf mode vector


compute msd all msd com yes
variable twopoint equal c_msd[4]/6/(step*dt+1.0e-6)
fix 9 all vector 10 c_msd[4]
variable fit equal slope(f_9)/6/(10*dt)
thermo_style custom step temp pe c_msd[4] v_twopoint v_fit v_max_n press vol density


fix 1  all npt temp  ${temp} ${temp}  0.1  iso  5.68  5.68  0.5  mtk yes tchain  5  pchain  5
fix 1  all npt temp  0.8 ${temp}  0.1  iso  5.68  5.68  0.5  mtk yes tchain  5  pchain  5
fix 1  all npt temp  0.8 0.8  0.1  iso  5.68  5.68  0.5  mtk yes tchain  5  pchain  5

dump dmp2 all dcd ${N} traj.dcd
dump dmp2 all dcd 100 traj.dcd
dump dmp3 all dcd ${N} traj_unwrap.dcd
dump dmp3 all dcd 100 traj_unwrap.dcd
dump_modify dmp3 unwrap yes


# fix rnuntil all halt ${N} v_max_n >= 3980 error soft message no   # Stop when solidified

run 100000 # 5000000  # Run for this many steps
Neighbor list info ...
  update every 1 steps, delay 10 steps, check yes
  max neighbors/atom: 2000, page size: 100000
  master list distance cutoff = 3.8
  ghost atom cutoff = 3.8
  binsize = 1.9, bins = 6 6 6
  5 neighbor lists, perpetual/occasional/extra = 1 4 0
  (1) pair lj/cut, perpetual
      attributes: half, newton on
      pair build: half/bin/atomonly/newton
      stencil: half/bin/3d
      bin: standard
  (2) compute orientorder/atom, occasional
      attributes: full, newton on
      pair build: full/bin/atomonly
      stencil: full/bin/3d
      bin: standard
  (3) compute coord/atom, occasional
      attributes: full, newton on
      pair build: full/bin/atomonly
      stencil: full/bin/3d
      bin: standard
  (4) compute cluster/atom, occasional
      attributes: full, newton on
      pair build: full/bin/atomonly
      stencil: full/bin/3d
      bin: standard
  (5) compute rdf, occasional, copy from (1)
      attributes: half, newton on
      pair build: copy
      stencil: none
      bin: none
Per MPI rank memory allocation (min/avg/max) = 9.702 | 9.704 | 9.707 Mbytes
Step Temp PotEng c_msd[4] v_twopoint v_fit v_max_n Press Volume Density 
    4000   0.82582987   -6.5959919            0            0 8.3333333e+20           11    5.4985919    871.85226   0.99099359 
    4100   0.78224147   -6.6193806  0.037675045 0.00076575285  0.034300149            6    5.2949025    872.61112   0.99013178 
    4200   0.81784674   -6.6065611  0.061579385  0.001221813  0.026941811            7    5.5480608    869.93005    0.9931833 
    4300   0.81387393   -6.5925078  0.082690756 0.0016025338   0.02266339           16     5.872814    866.54971   0.99705763 
    4400   0.80144502   -6.6576185   0.10118187  0.001916323  0.020666939           25    5.4537336    866.81547   0.99675194 
    4500   0.76486321   -6.6059207   0.12096352 0.0022400649  0.019105031            5     5.780932      865.271    0.9985311 
    4600   0.81790143   -6.5861129   0.14187792 0.0025702518   0.01846725           23    6.1966565    861.72999    1.0026343 
    4700       0.8014   -6.5935957   0.15975039 0.0028324533   0.01797471           14    5.9943891    864.92826   0.99892678 
    4800   0.79694384   -6.6500132   0.17874882 0.0031032777  0.017514172           16    5.4852613    866.94963   0.99659769 
    4900   0.80064923   -6.6076706   0.20054369 0.0034106066    0.0173387            7    5.5154067    869.94852   0.99316222 
    5000   0.79519034   -6.5477842   0.21110214 0.0035183686  0.017035044           16     5.946602    868.74879   0.99453376 
    5100   0.78272862   -6.5994809    0.2163228 0.0035346859  0.016303419           13    6.1240327    861.43961    1.0029722 
    5200   0.82505534   -6.6323299   0.22853037 0.0036623453   0.01557331           23    5.6857224    866.73234   0.99684753 
    5300   0.75582045   -6.5238621   0.24389967 0.0038349001  0.015031139           15    5.7134241    872.85111   0.98985954 
    5400   0.83666605   -6.5780366   0.25329979  0.003908947  0.014550826            5    5.2355794    877.01335   0.98516174 
    5500   0.80503858   -6.6148932   0.25498218 0.0038633661  0.013971372            6    5.3900158    871.28144   0.99164284 
    5600   0.76320095   -6.6257787     0.270756 0.0040291068  0.013412835            4    5.2633252    871.85686   0.99098836 
    5700   0.77685258   -6.5987204   0.28875099 0.0042215053  0.013052947            4    5.6461023     868.3869   0.99494822 
    5800   0.79371643   -6.5896435   0.30645011 0.0044030185  0.012865089            3     5.797703    867.87322   0.99553711 
    5900   0.82224459   -6.6041003    0.3249331 0.0045894502  0.012730991            8    5.7744991    866.81765   0.99674944 
    6000    0.8138065   -6.6096815   0.34027743  0.004726075  0.012682896            5     5.874392    864.57666   0.99933302 
    6100   0.76335113   -6.6167713   0.35718953  0.004879638  0.012641578            8    5.6977569    866.18321   0.99747951 
    6200   0.77654757   -6.5710198   0.37172367 0.0049962855   0.01261519            9    5.7407699    869.44988   0.99373181 
    6300   0.79178579   -6.6217982   0.38681226 0.0051165638  0.012588441           13    5.2120674    873.09171   0.98958677 
    6400    0.7877444   -6.6994923   0.38772991 0.0050485661  0.012495915           17    5.1412802    867.96839   0.99542795 
    6500   0.81215045   -6.6470741   0.39889288 0.0051140108  0.012351562           18    5.5369878     866.6605   0.99693017 
    6600   0.80265928   -6.6026519    0.4160859 0.0052536095   0.01225589            8    5.6777221    868.07158   0.99530962 
    6700   0.79417897   -6.5703603    0.4295015  0.005342058  0.012173505            9    5.7278097    870.19483    0.9928811 
    6800   0.80422253   -6.5916963   0.41657148 0.0051050423  0.012025676            5    5.8900811    865.83609    0.9978794 
    6900   0.78525825   -6.6278688   0.40909631 0.0049407763  0.011757656            6    5.8258254    864.00884   0.99998976 
    7000   0.77960742   -6.6238432   0.42340754 0.0050405656  0.011474266            5    5.6504632    866.02178   0.99766544 
    7100   0.78423548   -6.6471837   0.44242984 0.0051928381  0.011274526           10    5.5709852    866.18559   0.99747677 
    7200   0.80809168    -6.607632   0.45632518  0.005281541   0.01112496            4    5.5293125    870.35725   0.99269581 
    7300   0.79108796   -6.6612732   0.45739923  0.005221452  0.010966069            8    5.3962454    867.74453   0.99568475 
    7400   0.78776973   -6.6610237   0.45864712 0.0051649447  0.010784447            5    5.2701055    869.33999   0.99385742 
    7500   0.79379999   -6.6450746   0.46480769 0.0051645295  0.010591579            9    5.6603999    865.16572   0.99865261 
    7600   0.80500631    -6.631287   0.47061894 0.0051602951  0.010415252           13     6.185565    859.40297    1.0053491 
    7700   0.83894627   -6.6321762   0.48128547 0.0052087169  0.010250988           13    6.1155609    860.69332    1.0038419 
    7800   0.78912852   -6.6407192   0.49613707 0.0053006094  0.010116207            6    5.9262714    861.48424    1.0029203 
    7900     0.799153   -6.7160681   0.51223779 0.0054033518 0.0099922662            5    5.6664224     859.8144     1.004868 
    8000   0.81980428   -6.7010432   0.53772464  0.005601298 0.0099339993            7    5.5925508    862.02035    1.0022965 
    8100   0.79216972    -6.635662   0.56063239 0.0057678225 0.0099107744            7    5.8028838    864.08133   0.99990587 
    8200   0.81302334    -6.640973   0.58050646 0.0058994555 0.0099247946            4    5.6407872    865.66219   0.99807987 
    8300   0.79245421   -6.6113307   0.58259976 0.0058493948 0.0099226026            2     5.659177    867.62494     0.995822 
    8400   0.77748166   -6.6339485   0.58507263 0.0058042917 0.0098975953            2    5.8254855    863.51154    1.0005657 
    8500   0.78391219   -6.6321576   0.58227689 0.0057085966 0.0098464558            4    5.6090052    866.03115   0.99765464 
    8600   0.79895221   -6.6223451     0.588436 0.0057018989 0.0097803699            8    5.3970112    870.40458   0.99264184 
    8700   0.76110549   -6.5873334   0.59597754 0.0057085968 0.0097114403            2    5.7229086    867.87849   0.99553107 
    8800   0.77397422   -6.6418127   0.59575432 0.0056416126 0.0096366467            6    5.4104015     869.0407   0.99419969 
    8900   0.76170222   -6.6898124     0.595081 0.0055719192 0.0095383156            2     5.559564    862.72116    1.0014823 
    9000   0.79562601   -6.6192231    0.6176743 0.0057192062 0.0094528261            5    6.0904404    861.22387    1.0032235 
    9100   0.82628779   -6.6191484   0.62189611  0.005695019 0.0093834894            7    5.9349347    863.32122    1.0007862 
    9200   0.78888419    -6.654473   0.63371896 0.0057402077 0.0093185335            6    5.7822433    862.48315    1.0017587 
    9300   0.74557276   -6.6228427   0.64770971 0.0058038502 0.0092650623            9    6.0430338    860.70278    1.0038308 
    9400   0.77721197   -6.6320252    0.6439321 0.0057086176 0.0091967582            6    5.6027387    867.08084   0.99644688 
    9500   0.79270866    -6.684147   0.65885833 0.0057794587 0.0091336989            3    5.1326646    869.45772   0.99372285 
    9600   0.75570062   -6.6917607   0.66681451 0.0057883201 0.0090712715            8    5.4026288    864.78392    0.9990935 
    9700   0.78650185   -6.6428288    0.6853482 0.0058878708 0.0090232698            7     5.597758    865.75562   0.99797215 
    9800   0.78684992   -6.6626349   0.69931736 0.0059465759 0.0089898651            9    5.2076035    870.06575    0.9930284 
    9900    0.7552582   -6.6431296   0.70523832 0.0059363492 0.0089571139            9    5.2604929    870.17873   0.99289947 
   10000   0.75970689   -6.6706485   0.70924044 0.0059103367  0.008915483            3    5.6505097    862.57632    1.0016505 
   10100   0.81080921   -6.6463385   0.72665935 0.0059955389 0.0088824379            6     5.923365    861.54099    1.0028542 
   10200   0.81109381   -6.6270304   0.74354407 0.0060747062 0.0088661965            9    6.0744471    861.56408    1.0028273 
   10300   0.85052157   -6.6777838   0.74255098 0.0060076937 0.0088459499           10    5.7190331    862.82795    1.0013584 
   10400   0.80497189   -6.6902868   0.75451445 0.0060457886 0.0088204042            5    5.6915084    861.54083    1.0028544 
   10500   0.78390595   -6.6761059   0.75864785 0.0060210144 0.0087905413            4    5.6166489    863.06257    1.0010862 
   10600   0.79005891   -6.6355974   0.75746236 0.0059548925 0.0087548516            2    5.9921436    861.47048    1.0029363 
   10700   0.77636638   -6.6481293   0.75454328  0.005876505 0.0087085401            4    5.9606453    860.47454    1.0040971 
   10800   0.76284842   -6.6836316   0.77085949 0.0059479896 0.0086629106            7    5.5032593    863.84539     1.000179 
   10900   0.79315851   -6.6446137   0.78008172 0.0059639273 0.0086224102           13    5.8258882    863.08884    1.0010557 
   11000   0.80042833   -6.6468804   0.79053634 0.0059889114 0.0085865686           22    5.8087749    863.36588    1.0007345 
   11100    0.8403929   -6.6336884   0.79980863  0.006004569  0.008554267            8    5.7366055    865.60138   0.99814997 
   11200   0.79280422    -6.643636   0.79829212 0.0059396732 0.0085170042            5    6.1616301    858.51757    1.0063859 
   11300   0.81674927   -6.6357609   0.81415707 0.0060041079 0.0084800457            5    5.8384607    862.82143    1.0013659 
   11400   0.82446461   -6.6730126   0.82644661 0.0060412762 0.0084524166            4    5.5703659    863.98391    1.0000186 
   11500    0.7878898   -6.7058213   0.83821422 0.0060740158 0.0084268841           15    5.6777208    860.08921     1.004547 
   11600   0.78636405   -6.6709122   0.85342913 0.0061309562 0.0084033468            8    5.7300081    861.43156    1.0029816 
   11700   0.80935807   -6.7027405   0.85453746 0.0060864489 0.0083803055            6    5.4450773    863.68743    1.0003619 
   11800   0.77990822   -6.7006104   0.86438429 0.0061044086 0.0083553201            7    5.5386785    862.44947    1.0017978 
   11900   0.80918789   -6.6885304   0.86785179 0.0060773932 0.0083280005           25    5.2041832    867.68273   0.99575568 
   12000   0.76243849   -6.6337178   0.87062351 0.0060459963 0.0082998778           12    5.7074208    864.97872    0.9988685 
   12100   0.83058621   -6.6631792   0.87339023  0.006015084 0.0082674042            8    5.9099637    860.45642    1.0041183 
   12200   0.81762529   -6.6344573   0.87632625 0.0059858348 0.0082338775            4    6.0648408    860.81795    1.0036965 
   12300   0.80699853   -6.7087998   0.87899964 0.0059552819 0.0081982228            6    5.9032676     857.9306    1.0070745 
   12400   0.81450893   -6.6895173    0.8763149 0.0058892128 0.0081552569            4    5.8723562    859.04297    1.0057704 
   12500   0.78650856   -6.6716986   0.89576102 0.0059717399 0.0081168788            5    5.6694872    862.89917    1.0012757 
   12600   0.81558653   -6.6685602    0.9129745 0.0060381909 0.0080838592            3    5.4051897    867.14764   0.99637012 
   12700   0.79364843   -6.6533174   0.93849683 0.0061581154 0.0080641992            9    5.3516694    869.11528   0.99411438 
   12800   0.82200428   -6.6407816   0.93442661 0.0060835063 0.0080439381           14    5.6144519    866.75957   0.99681622 
   12900   0.79416141   -6.6821468   0.93046334 0.0060107449   0.00801628            5    5.9041306    859.26804     1.005507 
   13000   0.82991952   -6.6662252   0.91595673 0.0058715173 0.0079795587           15    6.2132861    856.05326     1.009283 
   13100   0.80796968    -6.665888   0.92614011 0.0058914763 0.0079394774           12    5.7764646    862.02086    1.0022959 
   13200   0.83206465   -6.6327652   0.93822513 0.0059231382 0.0079020966           17    5.6440392    866.24118   0.99741276 
   13300   0.81414795   -6.6622498   0.94641617 0.0059299256 0.0078661486           10    5.3450337     868.8911   0.99437087 
   13400   0.84924428   -6.6999188   0.95781574 0.0059565653 0.0078346805           14    5.5421567    864.04425   0.99994879 
   13500    0.7925053   -6.6831488   0.96701938 0.0059692552 0.0078042025            8    5.4256895    865.09841    0.9987303 
   13600   0.82218046   -6.6663803   0.96417711 0.0059079478 0.0077711187           13    5.4633256    866.57404   0.99702964 
   13700    0.8229338   -6.6176599    1.0004283 0.0060853299 0.0077447149           11     5.564028    868.95154   0.99430171 
   13800   0.79526384   -6.6703547    1.0091263 0.0060937577 0.0077269248           12    5.5314911     865.1102    0.9987167 
   13900   0.83415502   -6.7066134    1.0191008 0.0061097167 0.0077106023            7     5.682266    860.91016     1.003589 
   14000   0.79160484   -6.6929175    1.0220924  0.006083883 0.0076949717           16    6.0033922    857.11201    1.0080363 
   14100   0.81287469   -6.6538942    1.0257206 0.0060621784 0.0076760967           13    5.8690194    862.08667    1.0022194 
   14200   0.81094337   -6.6342424    1.0426332 0.0061187391 0.0076603716            4    5.9306581    862.58512    1.0016403 
   14300   0.77057942   -6.6283913    1.0350881 0.0060319817 0.0076435236            4    6.1441023    859.65131    1.0050587 
   14400   0.83913063   -6.6778349    1.0446801 0.0060456022 0.0076235885            5    5.5161426    865.32505   0.99846873 
   14500   0.77788009   -6.6220778    1.0532399 0.0060531029 0.0076024708            7    5.7304091    865.48288   0.99828665 
   14600   0.81690356   -6.6898819     1.081339 0.0061720259 0.0075865924           11    5.3823445    866.35294   0.99728408 
   14700   0.79805694    -6.677512    1.0854053 0.0061530913 0.0075777248           19    5.7685432    861.17928    1.0032754 
   14800   0.81925764   -6.6404722    1.1018594 0.0062041631 0.0075673935           16    5.5671995    867.33389   0.99615616 
   14900   0.79816997   -6.6267024    1.1065094  0.006188531 0.0075597227           11     5.656364    866.37736   0.99725598 
   15000   0.76007793    -6.642012    1.1159494 0.0061997186 0.0075498375           17    5.6304954    864.92288   0.99893299 
   15100   0.82145628   -6.6434668    1.1250924  0.006209119 0.0075412009           12    5.4666373    868.37328   0.99496382 
   15200    0.7703355   -6.5923438     1.131587 0.0062038761 0.0075325453           11    6.0629034    863.12949    1.0010086 
   15300   0.83457865   -6.6151172     1.145214 0.0062375489  0.007526762            9     6.120622    861.76734    1.0025908 
   15400   0.80360604    -6.602133    1.1646668 0.0063023093 0.0075235081            8      5.96397    864.22682   0.99973755 
   15500   0.79463393   -6.6703748    1.1768073 0.0063269207  0.007522288           16    5.8746461    859.93206    1.0047305 
   15600   0.80773545   -6.6378461    1.1901035 0.0063573905 0.0075228219           10    5.8959408    862.33531    1.0019304 
   15700   0.79097014   -6.6074481    1.2022411  0.006381322 0.0075238589           17     5.703894    866.46663   0.99715323 
   15800   0.74322999   -6.6659673    1.2182537 0.0064253885 0.0075275549           17    5.2070859    869.38995   0.99380031 
   15900   0.81035928   -6.6813051    1.2250308 0.0064204968 0.0075287161           15    5.3061952    867.77124    0.9956541 
   16000   0.81955052   -6.6293805    1.2570525 0.0065471482 0.0075354047            7    5.6002561    866.73667   0.99684256 
   16100    0.7613046   -6.5719883    1.2644985 0.0065450233 0.0075463593            6     6.001448    865.48704   0.99828184 
   16200   0.82163062   -6.6726742    1.2790034 0.0065792354 0.0075578684            7    5.7107671    863.11041    1.0010307 
   16300   0.76132097   -6.6400289    1.2546604 0.0064144193 0.0075636273            6    5.7492669    864.00044   0.99999949 
   16400   0.81170478   -6.6265668    1.2694872 0.0064506462 0.0075631184            5    5.5449878    868.13745   0.99523411 
   16500   0.80267734   -6.6069388    1.2648215 0.0063879872 0.0075625204            6    5.7919874     866.0892   0.99758778 
   16600    0.7782564   -6.6114768    1.2817844 0.0064346604 0.0075608216            4    5.7633531    865.79306   0.99792899 
   16700   0.81538179   -6.6023383    1.2888315 0.0064312947 0.0075601667            3    5.6370846    868.86504   0.99440069 
   16800   0.85420906   -6.5947123    1.3005163 0.0064509733 0.0075598455            4    5.5079047    872.27097   0.99051789 
   16900   0.79500294   -6.5896314    1.3239059 0.0065281352 0.0075619221            8    5.6863839    868.50224   0.99481609 
   17000   0.78681673   -6.6536127    1.3296557 0.0065179197 0.0075644563            8    5.5897447     865.8153   0.99790337 
   17100   0.81513579   -6.6367822    1.3499401 0.0065786551 0.0075698242            6    5.7767774    864.46528   0.99946177 
   17200   0.82048548   -6.5811379    1.3589918 0.0065842622 0.0075766933           15    6.2388553    861.83063    1.0025172 
   17300   0.79358118   -6.5949226    1.3611689   0.00655669 0.0075824152            6    6.3523845     859.3565    1.0054035 
   17400   0.75935136   -6.6779161    1.4058385  0.006732943 0.0075898827            5    5.1250188    869.54292   0.99362548 
   17500   0.77686963   -6.6398722    1.4319425 0.0068187739 0.0076049245           14    5.2766024    870.97736   0.99198904 
   17600   0.78060372   -6.6802838    1.4552955 0.0068906037 0.0076227774           14    5.1117889    870.13267   0.99295203 
   17700   0.76267611   -6.6509845    1.4465249 0.0068103807 0.0076391148           14    5.7778374    862.99232    1.0011677 
   17800   0.80234604   -6.6228143    1.4552148  0.006812803 0.0076525384           28    5.7545858    866.02337   0.99766361 
   17900   0.77981097   -6.6412587    1.4715561 0.0068508195  0.007667203            8    5.6469723    866.09047   0.99758631 
   18000   0.80691679   -6.6959676    1.4825002 0.0068634265  0.007681709           15    5.3038983    866.78093   0.99679165 
   18100   0.81244505   -6.6475902    1.5091073 0.0069480076 0.0076973348           11    5.3995392    869.35389   0.99384153 
   18200   0.76170461   -6.6828114    1.5198876 0.0069591923 0.0077155767           16    5.4142034    865.59216   0.99816061 
   18300   0.79230075   -6.6824355    1.5288767 0.0069620978 0.0077333565           15    5.4423291    866.37039     0.997264 
   18400   0.81375329   -6.6495913    1.5241178 0.0069027071 0.0077489309            8    5.8459922     862.5094    1.0017282 
   18500   0.77562441   -6.6299243    1.5299136 0.0068915023 0.0077609007            7    5.7096271    865.80725   0.99791264 
   18600   0.80159927   -6.5943594    1.5364204  0.006883604 0.0077721721            7    5.5176439    871.18906   0.99174799 
   18700   0.79153721   -6.6680521    1.5336259   0.00683434 0.0077811724            6    5.3148287    868.64084   0.99465736 
   18800    0.7695784   -6.6455574    1.5155464 0.0067178474 0.0077847542           11    5.7832276    862.98736    1.0011734 
   18900   0.82962009   -6.6565867     1.520374 0.0067035889 0.0077848066            7    5.5751166    865.85978    0.9978521 
   19000   0.78508233    -6.657936     1.537365 0.0067428286 0.0077862194            6    5.6251723    865.02178   0.99881878 
   19100   0.78757378   -6.6225929    1.5381834 0.0067110967 0.0077861901            7    5.8378684    864.33848   0.99960839 
   19200   0.77801742   -6.5915715    1.5646579 0.0067910499 0.0077890029            2    5.6890561    868.62259   0.99467825 
   19300   0.73330313   -6.5951179    1.5870177 0.0068524079 0.0077932778            6    5.5319912     869.2173    0.9939977 
   19400   0.77280163   -6.7381997    1.6079859 0.0069071559 0.0077987794            4    4.8028224    870.46221   0.99257611 
   19500   0.76182987   -6.6407014    1.6328006 0.0069777801 0.0078069741            8     5.130977    872.77638    0.9899443 
   19600   0.79919649    -6.634552    1.6305955 0.0069328038 0.0078167629           13    5.7190383    864.86945    0.9989947 
   19700   0.78722562   -6.6625793     1.624456 0.0068716411 0.0078233627            7    5.7858497    861.60236    1.0027828 
   19800   0.80760334   -6.6612402    1.6223802 0.0068281994 0.0078272214            9    5.4447088    867.06686   0.99646294 
   19900   0.83506599    -6.638808    1.6424132 0.0068777771 0.0078308547           11    5.5435103    867.74461   0.99568467 
   20000   0.78227638   -6.6331984    1.6380988 0.0068254116 0.0078344915            5    5.8823433    862.12275    1.0021775 
   20100   0.77668013   -6.6449231    1.6592117 0.0068789869 0.0078367612            4    5.5321804    866.71239   0.99687049 
   20200   0.79595618   -6.6585229    1.6846214 0.0069497579 0.0078412322           13    5.3213396    869.12622   0.99410187 
   20300   0.78777802   -6.6949003    1.6770593 0.0068844798 0.0078457385            4    5.3434302    865.42568   0.99835263 
   20400   0.79222852   -6.6732418    1.6762414 0.0068473913 0.0078481401           10    5.6768789    863.25114    1.0008675 
   20500   0.84241016   -6.6574439    1.6975331 0.0069005409 0.0078516033            4    5.9326238    861.14062    1.0033205 
   20600   0.79554568   -6.6261992    1.6930651 0.0068489688 0.0078544499            5    6.1414288    859.88977    1.0047799 
   20700   0.80219329   -6.5870896    1.6850698 0.0067836945 0.0078549666            6     6.447325    858.07441    1.0069057 
   20800   0.83225326   -6.6363347    1.7016808 0.0068176311 0.0078546306            6    5.5942278      867.016    0.9965214 
   20900   0.78793541   -6.6233125    1.7215057 0.0068640577 0.0078548651            4     5.407136    870.29886   0.99276241 
   21000    0.7499625   -6.6353233    1.7298791 0.0068645994 0.0078548281            1    5.4851311    868.22969   0.99512838 
   21100   0.81319578    -6.632048    1.7410318 0.0068761128 0.0078555365            2    5.3906673    870.06199   0.99303269 
   21200   0.78941413   -6.6418211    1.7348334 0.0068193134 0.0078543853           10    5.5295287    866.84357   0.99671962 
   21300   0.78751559   -6.6305396    1.7432307 0.0068201514 0.0078528369            5    5.9084387    862.85343    1.0013288 
   21400    0.7701262   -6.6527539    1.7548377 0.0068334798 0.0078511294            4    5.5989803    865.45913   0.99831404 
   21500   0.81728998   -6.6417298    1.7586768 0.0068165766 0.0078497258            4    5.5820105     867.1182   0.99640395 
   21600   0.79331035   -6.6732336    1.7569736 0.0067784473 0.0078469074            5    5.6889509     862.5449     1.001687 
   21700   0.77756484   -6.6824211    1.7795686 0.0068339807 0.0078437284            3    5.3426168    866.15662   0.99751013 
   21800   0.78179415   -6.6208669    1.7792892 0.0068015642 0.0078415076            3    5.6118438    867.32481    0.9961666 
   21900   0.80303488   -6.6717957    1.7912936 0.0068161857 0.0078382123            4    5.4033488    866.87315   0.99668561 
   22000   0.80077618   -6.6830882    1.7996191 0.0068167388 0.0078358408            4    5.5936573    863.09078    1.0010535 
   22100   0.78648203   -6.6960012    1.8206945 0.0068653638  0.007834594            3    5.6869187    860.96517    1.0035249 
   22200   0.78578539   -6.7035211    1.8220094 0.0068393746 0.0078340848            3     6.229876    853.36216    1.0124658 
   22300   0.83327136   -6.7141573    1.8215053 0.0068068207 0.0078318229            8    5.9240017    857.53936    1.0075339 
   22400   0.81634129   -6.6669613    1.8378181 0.0068371207 0.0078299016            6    5.7151063    863.14747    1.0009877 
   22500   0.77028999   -6.6949416    1.8370097 0.0068037395 0.0078273099            5    5.5454013    863.25086    1.0008678 
   22600   0.76569172   -6.6887397    1.8481881 0.0068148528 0.0078229325            5    5.4078803    865.28208   0.99851831 
   22700   0.77821337   -6.6477067    1.8737354 0.0068786172 0.0078205477            9    5.4864929    867.08382   0.99644346 
   22800   0.80318719   -6.6701059    1.8928816 0.0069184267 0.0078199754            4    5.4353326    866.82543   0.99674048 
   22900   0.78231231   -6.6877193    1.9125601 0.0069598254 0.0078208719            6    5.7647399    860.45054    1.0041251 
   23000   0.82358111   -6.6768193    1.9187412 0.0069519607 0.0078234714           11    5.8726849    860.58211    1.0039716 
   23100   0.80199801   -6.6453414    1.9324976 0.0069714918 0.0078259267            9    6.2027254    857.73826    1.0073003 
   23200   0.76261972   -6.6758708    1.9480268 0.0069972226 0.0078287147           22       5.8376    859.42941    1.0053182 
   23300   0.79409499   -6.6479756    1.9629287 0.0070204887 0.0078307784            6    5.6035362    865.46903   0.99830262 
   23400   0.81796873   -6.6439285    1.9916567 0.0070927944 0.0078353386           25    5.7425901     864.5703   0.99934037 
   23500   0.78863604   -6.6892471    1.9997624 0.0070913559 0.0078410198            7    5.4977288    864.59982   0.99930625 
   23600   0.80299933   -6.6697752      2.01741 0.0071236228 0.0078459276           10    5.3668331    867.63208    0.9958138 
   23700   0.79690762   -6.6011403     2.036498 0.0071606822 0.0078532664            4    5.3142741    873.59081    0.9890214 
   23800   0.80769544   -6.6729186    2.0355165 0.0071271585 0.0078597228            6    5.4438184    866.44467   0.99717851 
   23900   0.78134585   -6.6472142    2.0150254 0.0070258902 0.0078633574            5    5.7809138    863.08508    1.0010601 
   24000   0.78548033   -6.6427894    2.0322003 0.0070562509 0.0078652048            5    5.5413116    867.55209   0.99590562 
   24100   0.83712345   -6.6184813    2.0213897 0.0069895908 0.0078665497           11    5.7332457    866.48479   0.99713234 
   24200   0.80270732   -6.6414084    2.0182156  0.006949778 0.0078659235            9     5.963711    861.55028    1.0028434 
   24300   0.77637953   -6.6792507    2.0459577 0.0070163157 0.0078656366            9    5.4589981    865.22931   0.99857921 
   24400   0.79749165   -6.6318794    2.0619473 0.0070421696 0.0078673123            9    5.6681564    865.80875   0.99791091 
   24500   0.79456559    -6.659236    2.0599797 0.0070067336 0.0078677186           23    5.5962212    864.68317   0.99920992 
   24600   0.80079191   -6.6716627     2.077585 0.0070378895 0.0078675957           11    5.4748409    865.93293   0.99776781 
   24700    0.7848678   -6.6587824    2.0825411 0.0070261169 0.0078682762            4    5.6829521    863.53959    1.0005332 
   24800   0.81103632   -6.6743089    2.0637878 0.0069347707 0.0078675771            3     5.719744    862.65963    1.0015538 
   24900    0.8266455   -6.6284642      2.07505 0.0069446118 0.0078650649            3    5.6032618      867.794   0.99562799 
   25000   0.77720521    -6.654079    2.0770183 0.0069233942 0.0078623904            5    5.5169296    866.94866    0.9965988 
   25100   0.80043127   -6.6976376    2.0810339 0.0069091431 0.0078592582            4    5.6426968    861.46799    1.0029392 
   25200   0.79929293   -6.6462222    2.1284667 0.0070385801 0.0078573836            5    5.5051885    866.91741   0.99663473 
   25300   0.78867145   -6.6296866    2.1534976 0.0070932067  0.007859049           20    5.4183784    869.70858   0.99343622 
   25400   0.76204101   -6.6394616    2.1585257 0.0070817772 0.0078607144            3    5.5522825    866.88546   0.99667146 
   25500   0.75249105   -6.6817095    2.1664708 0.0070799696 0.0078622873            5    5.6115039    862.57148    1.0016561 
   25600   0.80161199   -6.6514678    2.1656049 0.0070494951 0.0078636569           11    5.6102442    865.23241   0.99857563 
   25700   0.76763231   -6.6545146      2.15947 0.0070021723 0.0078628681           10    5.5368028    865.57104   0.99818497 
   25800   0.75935315    -6.683319     2.173594 0.0070206523 0.0078615864            7    5.3130814    866.51998   0.99709184 
   25900   0.79469907   -6.6288618    2.2056866 0.0070968037 0.0078619233            2    5.4411753    869.07905   0.99415583 
   26000   0.78739548    -6.596958    2.2146351 0.0070981893  0.007863875            4     6.038905    863.49741     1.000582 
   26100   0.79995605   -6.7021173    2.2233856 0.0070989322  0.007865795            9    5.8230943    859.25718    1.0055197 
   26200   0.80360915    -6.646873    2.2556858 0.0071745731 0.0078690472            4    5.9113486     862.0428    1.0022704 
   26300   0.81257993   -6.6826189    2.2934234 0.0072668675 0.0078743279            7    5.3209623    867.65448   0.99578809 
   26400   0.82695496   -6.5844686    2.3266888 0.0073443459  0.007882622            7    5.8158608    867.93241   0.99546922 
   26500   0.79529605   -6.6285794    2.3370796 0.0073493067 0.0078916047            6    5.7340513    865.37365   0.99841265 
   26600   0.81276059    -6.632848    2.3507653 0.0073645528  0.007900155            2    5.8143125    864.23587   0.99972707 
   26700   0.80623953   -6.6211554     2.349937  0.007334385 0.0079087008            3    5.8010785    865.55862   0.99819929 
   26800   0.82595809   -6.6520834    2.3551735 0.0073233007 0.0079155664            2     5.323589    869.53907   0.99362988 
   26900   0.78311863   -6.6727363    2.3583549 0.0073059319 0.0079221353            4    5.4589287    865.89365   0.99781307 
   27000   0.76398284   -6.6093919    2.3932542 0.0073865869 0.0079288156            9    5.8090313    865.80105   0.99791979 
   27100   0.81511091   -6.6220333    2.4161556 0.0074297527 0.0079381365            7    5.6988576     866.8647   0.99669533 
   27200   0.79568848   -6.6466136    2.4302461 0.0074456066  0.007947358           18    5.7459603    863.75537    1.0002832 
   27300   0.76741167    -6.718167    2.4489635 0.0074754685 0.0079565773            5    5.2260524    865.04276   0.99879456 
   27400   0.79154911   -6.6768828    2.4578267 0.0074751419 0.0079665639            5    5.4421352    866.13887   0.99753057 
   27500    0.7963829   -6.6125319    2.4781741 0.0075096184 0.0079770658            8    5.8945033    864.67697   0.99921709 
   27600   0.79430132   -6.5953548    2.4801158 0.0074882721  0.007987424            5    5.8844255    865.65052   0.99809332 
   27700   0.81452907   -6.6806289     2.473798 0.0074422321 0.0079966613            3    5.7097768     861.4559    1.0029533 
   27800   0.79930135   -6.7208233    2.4598551 0.0073736664 0.0080041258            6    5.8479886    856.64613    1.0085845 
   27900   0.80404541   -6.6370753    2.4789898 0.0074043899 0.0080102447            8    6.0702686    860.24511    1.0043649 
   28000   0.80166548   -6.5815848    2.4847949 0.0073952229 0.0080168768            9    6.0832091    863.28601    1.0008271 
   28100   0.78437819   -6.6341979    2.5199457 0.0074731485 0.0080244248            7    5.6596464     865.7584   0.99796895 
   28200   0.79617572    -6.676447    2.5178807 0.0074405458 0.0080314316            4    5.8494355    860.01755    1.0046307 
   28300   0.82083393   -6.6627873    2.5077003 0.0073842763 0.0080377985           12    6.0519083    859.00052    1.0058201 
   28400   0.84277049    -6.669319    2.5374501 0.0074455694 0.0080442115           20    5.6676727    863.53203    1.0005419 
   28500   0.76986839   -6.6917814     2.567739 0.0075080087 0.0080516402           11    5.3277865    865.67548   0.99806454 
   28600   0.79658728   -6.6950207    2.5611154 0.0074624574 0.0080582326           21     5.312527    866.37014   0.99726429 
   28700   0.78117345   -6.6997523    2.5762935 0.0074805268  0.008064528           12    5.4848705    863.32885    1.0007774 
   28800   0.79883188   -6.6733809    2.5854736 0.0074811156 0.0080706575           11    5.6591184    863.31163    1.0007974 
   28900   0.83549993   -6.6370851    2.5810609 0.0074425055 0.0080767691            7    5.8329223    863.78301    1.0002512 
   29000   0.79815702   -6.6335879    2.5989026 0.0074681107 0.0080834843           11    6.2251425    858.10491    1.0068699 
   29100   0.80344724   -6.6922122    2.5871351 0.0074087488 0.0080893482           17    6.0900072    855.93786    1.0094191 
   29200   0.80213268   -6.6366388    2.6119838 0.0074542916 0.0080935621           15    5.6075394    865.85277   0.99786018 
   29300   0.81869609   -6.6700243    2.6441517 0.0075203404 0.0080994233            7    5.1084415    870.67605   0.99233234 
   29400   0.76057973   -6.6506341     2.672254 0.0075744159  0.008106491           15    5.4738355    867.53477   0.99592549 
   29500   0.83643284   -6.6501833    2.6727155 0.0075500436  0.008113664           13     5.632006    865.82292   0.99789458 
   29600   0.79190069   -6.6011892    2.6590167 0.0074859702 0.0081202689           14     6.404391    857.72342    1.0073177 
   29700   0.81382028   -6.6501493    2.6623724 0.0074701805 0.0081257256           22    6.3306261    856.02773    1.0093131 
   29800    0.8310733   -6.6369586    2.6741662 0.0074780933 0.0081310645            7    5.9869223    861.89864    1.0024381 
   29900    0.8070237    -6.621054     2.690191 0.0074977451 0.0081361416            4    5.6662811    866.80751   0.99676109 
   30000   0.82016419   -6.5641281    2.7179258 0.0075497937 0.0081421653            2    6.0580929    865.71328   0.99802096 
   30100   0.81611498   -6.6369261    2.7045541 0.0074876912 0.0081473765            3    5.7233123     865.8937   0.99781301 
   30200   0.75743192    -6.663261    2.7171612 0.0074976854 0.0081519994            5    5.6661006    862.81563    1.0013727 
   30300    0.7919203   -6.6993751     2.727694 0.0075019085 0.0081557423            5    5.6855309    861.54675    1.0028475 
   30400   0.78614198   -6.6015546    2.7368382 0.0075022975 0.0081605389            9    5.8170006    866.03228   0.99765334 
   30500   0.78610538   -6.6250914    2.7575989  0.007534423 0.0081646882            4    5.4176618    870.08946   0.99300134 
   30600   0.82515824    -6.612926    2.7577509 0.0075102147 0.0081687624            2    5.4932363     870.3683   0.99268321 
   30700   0.78528512   -6.5961633    2.7624843    0.0074986   0.00817246           10     5.653423    868.95174   0.99430148 
   30800    0.7994644   -6.6311174    2.7709575 0.0074971792  0.008175556            8    5.4339314    869.64291   0.99351123 
   30900   0.84336986   -6.5684586    2.7640056 0.0074541682 0.0081785887            5    5.8393776    869.20422   0.99401266 
   31000   0.79422908   -6.5480898     2.757243 0.0074119434 0.0081808351            4    6.2710801    863.67614     1.000375 
   31100   0.79728448   -6.6135329    2.7740644 0.0074331844  0.008182448            5    5.9957527    862.70722    1.0014985 
   31200   0.78667464    -6.616667    2.8012899 0.0074820776 0.0081845919            3    5.8175052    864.77744     0.999101 
   31300    0.7904395   -6.6476154    2.8252478 0.0075219589 0.0081874889            3    5.0038621    874.06015   0.98849032 
   31400   0.81981981   -6.6767705    2.8078168  0.007451743 0.0081894875            5    5.1021082    870.66215   0.99234818 
   31500    0.7857947    -6.672472    2.7946368  0.007393219 0.0081896427            6    5.6846324    862.53377    1.0016999 
   31600   0.81082145   -6.6098694    2.8073913 0.0074034578 0.0081899597           14    6.1686769    861.10712    1.0033595 
   31700   0.81473335    -6.690819    2.8306149 0.0074411538 0.0081910192           17     5.309473    867.39404   0.99608709 
   31800   0.75508076   -6.6749445    2.8476462 0.0074623851 0.0081918118           27    5.5298724    864.15861   0.99981646 
   31900   0.77306524   -6.6502754    2.8508624  0.007447394 0.0081930389           22     5.597448    865.38113   0.99840402 
   32000   0.82300355    -6.643137    2.8457684  0.007410855  0.008193832           17    5.4647321    867.98742   0.99540613 
   32100   0.81407582   -6.6638511    2.8297368 0.0073461494 0.0081930702           18    5.7950687    861.78151    1.0025743 
   32200   0.79569683   -6.6785186     2.838345 0.0073456132  0.008191875            8    5.8653259    859.80737    1.0048762 
   32300   0.78733645   -6.6472893    2.8395433 0.0073259629 0.0081899146           10    5.7488269    863.47406    1.0006091 
   32400   0.82001587    -6.651449    2.8643223 0.0073670839   0.00818872           10    5.6271154    865.41526   0.99836465 
   32500   0.79760988   -6.6625003    2.8859532 0.0073998798 0.0081879821            9    5.4051406    867.19412   0.99631672 
   32600   0.79194789   -6.6638104    2.8987359 0.0074098564 0.0081874004            2    5.4648214    866.55081   0.99705636 
   32700   0.81133585   -6.6340365    2.9200639 0.0074415491 0.0081871839            7    5.4986251     868.5444    0.9947678 
   32800   0.78258349   -6.5707118    2.9673752 0.0075390629 0.0081888813            6    6.0867092     864.4807   0.99944394 
   32900   0.82512531   -6.6486525    2.9692565 0.0075209129 0.0081920089            9    5.6744127    865.09503   0.99873421 
   33000   0.81153239   -6.6581689    2.9473785 0.0074428748 0.0081933093           12    5.5576842    865.65909   0.99808344 
   33100   0.81895065   -6.6946673    2.9339839 0.0073866664 0.0081933504            7    5.3675503     865.8052   0.99791501 
   33200   0.77740268   -6.6190057    2.9100954 0.0073044561 0.0081913675           15    5.8808715    863.80857    1.0002216 
   33300   0.81271876   -6.6068615    2.9527434 0.0073892477 0.0081895095           17    5.7918391    866.00752   0.99768187 
   33400   0.76989334    -6.634965    2.9723512 0.0074160457 0.0081887787           16    5.5765262     866.1678   0.99749726 
   33500    0.7599811   -6.7070607    2.9936765 0.0074469564 0.0081881701            8    5.4026979    863.34356    1.0007603 
   33600   0.76705683   -6.6519483    3.0137095 0.0074744779 0.0081884503           15    5.3042426    868.89922   0.99436157 
   33700   0.79043685   -6.5839389    3.0423678 0.0075231646 0.0081896234           11    5.6800854    869.33257    0.9938659 
   33800   0.82013817   -6.6600004    3.0242258 0.0074561779   0.00819072           21    5.6305106    864.88128   0.99898104 
   33900   0.81409288   -6.6619049    3.0400692 0.0074731297  0.008191183            5    5.7194711    863.00444    1.0011536 
   34000   0.79807116   -6.6679137    3.0562967 0.0074909231 0.0081923197           16    5.7201599    863.21279     1.000912 
   34100   0.80593065   -6.6700136    3.0903034 0.0075520611 0.0081937656           15    5.8575004    860.62208     1.003925 
   34200   0.80409675   -6.6207461    3.1313586 0.0076300159  0.008197417           16    6.0288239    861.43508    1.0029775 
   34300   0.79914167   -6.6963115    3.1603597 0.0076782304 0.0082021237           12    5.8062145    859.82773    1.0048525 
   34400   0.80268906   -6.6406129    3.1823414 0.0077091604 0.0082078807           16    5.8787752    861.84236    1.0025035 
   34500   0.80796182   -6.6459856    3.2019429 0.0077341616 0.0082135307           12    5.5244824     867.2773   0.99622116 
   34600   0.77217188   -6.6286726    3.2333732 0.0077875075 0.0082194197           11    5.3604493    870.55883   0.99246596 
   34700   0.78507458   -6.6591725    3.2256652 0.0077465541 0.0082251715           29    5.2747807    869.84834    0.9932766 
   34800   0.77622894   -6.6732714    3.2239284 0.0077201349 0.0082301422           18    5.9321239    859.45562    1.0052875 
   34900   0.80691981   -6.6355616    3.2183194 0.0076846211 0.0082353064            7    6.2565249    857.91127    1.0070972 
   35000   0.81769935   -6.6634389    3.2312226 0.0076933871 0.0082398477            9    5.7128702    863.78012    1.0002546 
   35100   0.77968492   -6.7005879    3.2627714 0.0077463706 0.0082445685           12    5.4353467     864.0034   0.99999606 
   35200   0.77903166   -6.6451627    3.2599586 0.0077177048 0.0082494167           12    5.7945802    862.91805    1.0012538 
   35300   0.80219549    -6.662905    3.2740215 0.0077290403 0.0082538801           20    5.5048101    866.05936   0.99762215 
   35400   0.77199415   -6.6687651     3.274482 0.0077082908 0.0082582618           18    5.6550466    863.07665    1.0010698 
   35500   0.77581448   -6.6199603    3.2756973 0.0076894301 0.0082618532           12    5.7877452    864.93827   0.99891521 
   35600   0.80184978   -6.6141076     3.274467 0.0076649507  0.008264945           19    5.9675705    863.07876    1.0010674 
   35700   0.76267665   -6.6636637    3.2600873 0.0076099142 0.0082674279           27    5.5736968    865.27422   0.99852738 
   35800   0.76640251   -6.7312879    3.2739648 0.0076209608 0.0082687152           32    5.0399779    866.99834    0.9965417 
   35900   0.78631013   -6.6881763    3.2691092 0.0075884613 0.0082694767           21    5.2685774     867.2837   0.99621382 
   36000   0.77134809   -6.6868626    3.2886881 0.0076127038 0.0082705926           19    5.3809991    865.04669   0.99879002 
   36100    0.8166482   -6.6355156    3.2930207 0.0076016174 0.0082722476           25    5.8094648    864.47872   0.99944624 
   36200    0.7816163    -6.654268    3.2819705 0.0075551807  0.008273186           23    5.9901648    859.82748    1.0048527 
   36300   0.78431711   -6.6528793    3.3202709 0.0076222931 0.0082744833           38    5.7552657    862.71153    1.0014935 
   36400   0.82832658   -6.6814891    3.3218431  0.007604952 0.0082756417           51    5.6605284    863.01658    1.0011395 
   36500   0.78649274   -6.6905462    3.3345393 0.0076131034 0.0082770279           52    5.6554594    861.48163    1.0029233 
   36600   0.80456337   -6.6897918    3.3488731 0.0076249386 0.0082784324           44    5.5097376    863.87799    1.0001412 
   36700   0.78731278   -6.6290054    3.3527098 0.0076128741 0.0082796897           34    5.7297088    865.11869    0.9987069 
   36800   0.78295899   -6.7048721    3.3468307 0.0075788737 0.0082801833           34    5.4168257     864.1316   0.99984771 
   36900   0.79116099   -6.7165726     3.366126 0.0076019105 0.0082804365           32    5.4384981    863.29786    1.0008133 
   37000   0.85704886   -6.6993646    3.3501488 0.0075453801 0.0082808451           27    5.7258294     861.3178    1.0031141 
   37100   0.78173872   -6.6139095    3.3583151  0.007543385 0.0082807851           22    6.4601791    856.38005    1.0088979 
   37200   0.84518313   -6.6881587    3.3701822 0.0075496912 0.0082808959           21    5.9555712    859.01867    1.0057989 
   37300   0.80399005   -6.7079477    3.4166862 0.0076333471 0.0082815204           13    5.5505758    862.20108    1.0020864 
   37400   0.81130025    -6.671128    3.4101565 0.0075983878 0.0082822246            5    5.4389521    866.17908   0.99748426 
   37500   0.83896597   -6.6589058    3.4102133 0.0075782516 0.0082827728            2    5.7914199    863.13188    1.0010058 
   37600   0.81553067   -6.6848058    3.4129854 0.0075642406 0.0082827307            3    5.6410407    862.57144    1.0016562 
   37700   0.77022753   -6.6243639      3.41716 0.0075534039  0.008282508            1    5.7598239    864.81525   0.99905731 
   37800   0.81795898   -6.6364256    3.4370293 0.0075772249 0.0082822194           16    5.6770876    865.68108   0.99805809 
   37900   0.77837574   -6.6301524    3.4371411 0.0075574781 0.0082823768           10    6.5049272    854.70673     1.010873 
   38000   0.79462843   -6.6547311    3.4660938 0.0076010828 0.0082824292            5    5.7201283    863.97365    1.0000305 
   38100   0.77981637    -6.647086    3.5080571 0.0076729157 0.0082835373            8    5.2995066    870.33502   0.99272117 
   38200   0.80577379   -6.5935941    3.5424648   0.00772789 0.0082850177           19    5.3191829    874.18108   0.98835359 
   38300   0.79906282   -6.6366926    3.5621193  0.007750477 0.0082877501            8    5.2283249    872.32921   0.99045175 
   38400   0.78562618   -6.6310739    3.5512465  0.007706698 0.0082899362           14    5.5949203    866.62462   0.99697144 
   38500   0.80091157   -6.6782436    3.5503929  0.007684833 0.0082919839           20    5.2932185     868.4516    0.9948741 
   38600   0.83003764   -6.6419075    3.5281332 0.0076168678 0.0082923821           16    5.5379019      867.528   0.99593328 
   38700   0.79929875    -6.632741    3.5415889 0.0076261603 0.0082928387            7    5.6645959    866.73507    0.9968444 
   38800   0.80152838   -6.6642155    3.5210569 0.0075624073 0.0082924839            9     5.666428    864.02656   0.99996926 
   38900   0.82611816   -6.6958723    3.5414203   0.00758659 0.0082917672            8    5.4110648    865.32727   0.99846616 
   39000   0.80433536     -6.68772    3.5785822 0.0076465431 0.0082919037           13    5.4042937     865.5876   0.99816587 
   39100   0.74991683   -6.6679147    3.6064033 0.0076862815 0.0082927748            9    5.7508583    862.19404    1.0020946 
   39200   0.78639658   -6.6307226    3.6419938 0.0077423337  0.008294739            6    5.9168898    862.66682    1.0015454 
   39300   0.84056144   -6.6620287    3.6576312 0.0077557913 0.0082977242            6     5.740066    863.65782    1.0003962 
   39400   0.78178969   -6.6844985    3.6644488 0.0077505262 0.0083002272           14    5.4996706    864.29993   0.99965298 
   39500   0.77868541   -6.7124238    3.6687045 0.0077398828 0.0083020055            5    5.0435325    867.86665   0.99554465 
   39600    0.7853675   -6.6733113    3.6511458 0.0076833875 0.0083032188           10    5.4032176    865.94286   0.99775636 
   39700   0.78005435   -6.6797658    3.6652168 0.0076935701 0.0083039628            6    5.3913008    866.12434   0.99754731 
   39800   0.75221914   -6.6938279    3.6620723 0.0076676555 0.0083043277           10    5.7841323    858.72792    1.0061394 
   39900   0.81679341   -6.7066647    3.6886084 0.0077038604 0.0083057991            6    5.7153018    860.25738    1.0043506 
   40000   0.78332291    -6.633857    3.6666486 0.0076388511  0.008306576            5    6.0578143    860.96213    1.0035285 
   40100   0.82927588   -6.6956286      3.67004 0.0076268495 0.0083064408           18    5.5758562    863.14315    1.0009927 
   40200   0.79203218    -6.702144    3.6919857 0.0076533699 0.0083063506            8    5.5181348    862.83543    1.0013497 
   40300   0.77306142   -6.6851699    3.7014728 0.0076539966 0.0083065408            7    5.6738652    861.79095    1.0025633 
   40400    0.7882553   -6.7440367     3.692349 0.0076162313 0.0083064992           10    5.3871078    861.49956    1.0029024 
   40500   0.78085286   -6.6663288    3.7001315 0.0076134391 0.0083059681           16    5.6764425    863.02374    1.0011312 
   40600   0.78964818   -6.6513244    3.7187176 0.0076328357 0.0083053351           10    5.5146955    866.53927   0.99706965 
   40700   0.79793123   -6.6866835    3.7194316 0.0076155438 0.0083045085           11    5.1080131    869.71851   0.99342487 
   40800   0.75602173   -6.6772028    3.7038246 0.0075650012  0.008303016           10    5.6996919    861.90628    1.0024292 
   40900   0.79032874   -6.7043576    3.6938835 0.0075262498 0.0083009316           23    5.7115257    859.78513    1.0049022 
   41000   0.85801424   -6.7021569     3.733568 0.0075885528 0.0082996249           10     5.883526    858.80526    1.0060488 
   41100   0.76398354   -6.6277847    3.7663709 0.0076365994 0.0082995467            9    6.3763925    856.79501    1.0084092 
   41200   0.84763243    -6.688057    3.7895878 0.0076650238 0.0083000081           10    5.8572891    859.18792    1.0056007 
   41300   0.80804723   -6.6686402    3.7979388 0.0076633148 0.0083008912            8    6.1257603    857.12997    1.0080152 
   41400   0.80547133   -6.6690525     3.809195 0.0076674617 0.0083014607           12    5.9489224    859.18456    1.0056047 
   41500   0.80302704   -6.6204475    3.8365731  0.007703962 0.0083024342           14    5.5892829    868.46988   0.99485316 
   41600   0.77025401   -6.6037411    3.8482702 0.0077088744 0.0083032144           18    5.5348767    869.51231   0.99366045 
   41700    0.7580701   -6.7014493    3.8603692 0.0077145666 0.0083040711           42    5.1450102    867.36995   0.99611474 
   41800   0.79286844   -6.6672549     3.904894 0.0077848763  0.008304977           13    5.2008592    870.26948   0.99279593 
   41900   0.81243232   -6.6179628    3.8642726 0.0076855064 0.0083058879           25     5.735653    866.52248   0.99708896 
   42000   0.80187218   -6.6528778    3.8608282 0.0076603733 0.0083062446           15    6.2043977     857.9873    1.0070079 
   42100   0.82394584   -6.6663262    3.8923768 0.0077046254 0.0083070795            9    5.9654723    860.04398    1.0045998 
   42200   0.82044452   -6.7027095    3.9046936 0.0077106903 0.0083078185            9    5.4092717    864.95017   0.99890148 
   42300   0.80449114   -6.6755219    3.9086513 0.0077002586 0.0083086142            9    5.9379026    858.94663    1.0058832 
   42400   0.81209772   -6.6812036    3.8950921 0.0076554483 0.0083091618           11    6.0605613    857.32834    1.0077819 
   42500    0.8151759   -6.6362998    3.9229034 0.0076919674  0.008309242            7    5.6524971    865.69864   0.99803784 
   42600   0.79981799   -6.6619856    3.9226778 0.0076734699 0.0083093817           20    5.5981788     865.2608   0.99854286 
   42700   0.78866155   -6.6662847    3.9493399 0.0077075328  0.008309589           13    5.6373209    863.34567    1.0007579 
   42800   0.77836046   -6.6365049    3.9374009  0.007666279 0.0083093758           19    5.7594123    863.55746    1.0005125 
   42900   0.77380043    -6.687417    3.9656463 0.0077032756 0.0083093413            6    5.2131293    867.77387   0.99565109 
   43000   0.81526695   -6.6404372    3.9614427 0.0076772144 0.0083094306            9    5.5503953    867.05247   0.99647949 
   43100   0.79296293   -6.6623679    3.9773549 0.0076901679 0.0083094181            9    5.6799511    863.82276    1.0002052 
   43200   0.80431695   -6.6459496    3.9961661 0.0077086537 0.0083099146           11    5.9104316    861.22713    1.0032197 
   43300   0.82759615   -6.6109437    4.0130422 0.0077233298 0.0083105967            5    5.9035598    864.64855   0.99924993 
   43400   0.80376126   -6.6568976    3.9882645 0.0076579578 0.0083109028            8    5.8859326    861.55431    1.0028387 
   43500   0.80524313   -6.6284431    4.0006521 0.0076640844 0.0083106626            6    5.9487498     862.5448    1.0016871 
   43600   0.85230289   -6.6371488    4.0250542 0.0076931463 0.0083107081            8    5.9197924    863.63278    1.0004252 
   43700   0.80601984   -6.6527829    4.0451985 0.0077139558 0.0083111488           11    5.6098039    865.41768   0.99836185 
   43800    0.8079527   -6.6974207    4.0507149 0.0077068395 0.0083113193           20    5.1609217    868.24534   0.99511044 
   43900   0.74657984   -6.6498007    4.0504964 0.0076888692 0.0083110714           14    5.6318938    864.87519   0.99898807 
   44000   0.78926842   -6.6338895    4.1011572  0.007767343  0.008311351           19    5.7272593    864.74795   0.99913507 
   44100   0.78557356   -6.6387218    4.1069317 0.0077606419 0.0083126541           22    5.6249206    866.27298   0.99737614 
   44200   0.78783293   -6.6238732    4.0995826  0.007729228   0.00831318           21    5.7027452    865.97705   0.99771697 
   44300   0.76261058   -6.7015518    4.1039558  0.007720007 0.0083134366           23    5.5167109    862.56513    1.0016635 
   44400   0.78517591   -6.6952754    4.1096794 0.0077133621 0.0083133766           23    5.2440875    866.87881   0.99667911 
   44500   0.78869833   -6.6266718    4.1184656 0.0077124824 0.0083132369           10    5.5274638    868.06563   0.99531644 
   44600   0.81543745   -6.6248179    4.1048313 0.0076697146 0.0083128244            4    5.6854489    866.92042   0.99663127 
   44700   0.79693616   -6.6159586    4.0883616 0.0076218523 0.0083120618            6    6.0234925    862.41388    1.0018392 
   44800   0.81245875   -6.6319838    4.0918394 0.0076113084 0.0083109493            6    6.0251125    861.80455    1.0025475 
   44900   0.84598063   -6.6437194    4.1135694 0.0076346869 0.0083099156           10    5.5181538    867.68672   0.99575109 
   45000   0.81076004   -6.5913737    4.1436495 0.0076734248 0.0083091871            4    5.8796756    865.77669   0.99794786 
   45100   0.77640934   -6.6128573    4.1500556 0.0076682475 0.0083088951            5    5.9019336    864.69628   0.99919476 
   45200   0.77620132   -6.6163331    4.1534222 0.0076574892 0.0083079531            7    5.6133222    868.11099   0.99526444 
   45300   0.82501067   -6.6478371    4.1644341 0.0076608425 0.0083070116            3    5.2559676    871.91209   0.99092559 
   45400    0.7551104   -6.6560494    4.1620786  0.007639645 0.0083059652            4    5.3938519    867.45594   0.99601601 
   45500   0.77996246   -6.6625995    4.1826809 0.0076605876 0.0083047843            5     5.440105    866.94141   0.99660714 
   45600    0.7952594   -6.6304492    4.1927896 0.0076622616 0.0083038164            8    5.7351851    865.37876   0.99840676 
   45700   0.79385164   -6.6013175    4.1850893 0.0076314538 0.0083028599            5    6.0411306    862.58564    1.0016397 
   45800   0.80112677   -6.6829717    4.2169822 0.0076728206 0.0083021386            6    5.6708788    862.83464    1.0013506 
   45900   0.77790745   -6.6907372    4.2062362 0.0076365943 0.0083008327            7     5.407581    865.38967   0.99839417 
   46000   0.81101958   -6.6554929    4.2284281 0.0076601957 0.0082996748            8    5.3070207    869.56899   0.99359569 
   46100   0.80537826   -6.6878143    4.2409103 0.0076661429 0.0082985615            5    5.2992274    867.46459   0.99600608 
   46200    0.7773267   -6.6663336    4.2092745 0.0075924863 0.0082972714           11    5.9582977    859.15286    1.0056418 
   46300   0.81956172   -6.6406012    4.2381542 0.0076280672 0.0082956141           16    5.8685056    863.10492     1.001037 
   46400   0.79956793   -6.5962784    4.2590938 0.0076492345 0.0082947249           19    5.8739256     866.3345   0.99730531 
   46500   0.79716034   -6.6366856    4.3163516 0.0077353971   0.00829452            9    5.5838371    867.14922   0.99636831 
   46600   0.77669139   -6.6768345    4.3328509 0.0077483027 0.0082945555           16    5.4403065    866.18051   0.99748261 
   46700   0.77579113   -6.6463506    4.3483614 0.0077593886 0.0082948698           18    5.3674795    868.85152   0.99441617 
   46800   0.82343814   -6.6686985    4.3768644 0.0077935618  0.008295444           21    5.1908941    870.17692   0.99290153 
   46900   0.77781894   -6.6581428    4.3786872 0.0077801833  0.008296089           19    5.3520874    868.27187   0.99508004 
   47000   0.81078015   -6.5586608    4.4041641 0.0078088015 0.0082970112           17    6.3245805    862.89911    1.0012758 
   47100   0.78416243   -6.5814494    4.4479872 0.0078697579 0.0082990299           23    5.9036108    866.26101   0.99738992 
   47200   0.83661188   -6.6230728      4.44588 0.0078493643 0.0083013399           21    5.8250382    865.05914   0.99877564 
   47300   0.82327126   -6.6577749    4.4377067 0.0078183698 0.0083029073            7    6.2069122    857.43333    1.0076585 
   47400   0.81153151   -6.6229412    4.4666345 0.0078527328  0.008304882           15    6.2243642     859.1535     1.005641 
   47500   0.81469394    -6.644371     4.498237 0.0078916438 0.0083072252            9    5.8790363    862.28712    1.0019864 
   47600   0.84673099   -6.6561528    4.5275389 0.0079263635 0.0083099155            8    5.5171933     867.0164   0.99652095 
   47700   0.79315334   -6.6146291     4.540246 0.0079319461 0.0083128225           10    5.8971505    863.68859    1.0003606 
   47800   0.76556015   -6.6371305    4.5489135 0.0079304628 0.0083155247            5    5.6452919    865.35796   0.99843075 
   47900   0.77578146   -6.6096178    4.5597898 0.0079328284 0.0083180952            3    5.6070963    868.44155   0.99488561 
   48000   0.76707419   -6.6628406    4.5335664 0.0078707749 0.0083199906           12    5.2160214    869.59002   0.99357166 
   48100   0.81298983    -6.689332    4.5175142  0.007826601 0.0083208992            4    5.3293519    866.09706   0.99757872 
   48200   0.82046496   -6.6105773     4.535305 0.0078411219 0.0083220744           10    5.7291181     867.4198    0.9960575 
   48300   0.80181203   -6.5511717    4.5524412 0.0078544533 0.0083233599           21    5.9425234    867.92082   0.99548252 
   48400   0.78037815   -6.5782871    4.5435018 0.0078228336 0.0083246863           12    5.8287999      866.988   0.99655358 
   48500   0.80755288   -6.6434328    4.5443353 0.0078081362 0.0083253747           10    5.4986789    867.99517   0.99539725 
   48600   0.81525875   -6.6417112    4.5376689 0.0077806393  0.008325893           13    5.7951112    863.76975    1.0002666 
   48700   0.80307154   -6.6928597    4.5067647 0.0077117807  0.008325617           11    5.8796535    858.87665    1.0059652 
   48800   0.80647723   -6.7177416    4.5821679 0.0078247402 0.0083257622           13    5.5366613     862.3812    1.0018771 
   48900   0.76863775   -6.6158613    4.5913085 0.0078243158 0.0083265812            8    5.9194081    863.04372     1.001108 
   49000   0.76978466   -6.6062022    4.5971685 0.0078183136 0.0083272438            9    5.7810604    865.75704   0.99797052 
   49100   0.78691962   -6.6780302    4.5955463 0.0077996372 0.0083274642           10    5.1937229    869.24192   0.99396956 
   49200    0.7713088   -6.7425239    4.6025215 0.0077955987 0.0083274131           23    5.1660339    864.90616    0.9989523 
   49300   0.78931723   -6.6868161    4.6219002 0.0078125426 0.0083276033            6    5.3202354    866.43867    0.9971854 
   49400   0.81158703   -6.6546434    4.6153679 0.0077857082 0.0083278905            7    5.5989049    865.76314   0.99796348 
   49500   0.82588603   -6.5823984    4.5971957 0.0077393866 0.0083278608            4    6.0544821    864.28434   0.99967101 
   49600    0.8134834    -6.604996    4.5648999 0.0076695225 0.0083268869            5    5.8832476    864.81391   0.99905886 
   49700    0.8169532   -6.6594177    4.6087016 0.0077275345 0.0083260491           11    5.8066726    862.32439    1.0019431 
   49800   0.77498317   -6.6534865    4.5995315 0.0076966724 0.0083251919           22    5.9299641    860.32604    1.0042704 
   49900   0.78764881   -6.6450408    4.6367556 0.0077434128 0.0083243363            7    5.5204593    867.53018   0.99593077 
   50000   0.78095025   -6.5809656    4.6591483 0.0077652471 0.0083240526            8    5.8300987    867.87044    0.9955403 
   50100   0.79609875   -6.6200405    4.6737697  0.007774068  0.008323965           12    5.8319345    865.24075   0.99856601 
   50200   0.77833222   -6.6557326    4.6938734 0.0077919544 0.0083239202           13    5.5666384    865.59453   0.99815787 
   50300   0.81328963   -6.6423078    4.7154416 0.0078121962 0.0083241713            8    5.2698098    870.95682   0.99201244 
   50400   0.79177211   -6.6482472    4.7076393 0.0077837951 0.0083243718           11     5.655005    865.38701   0.99839724 
   50500   0.77138285   -6.6795615    4.7131039 0.0077773991  0.008323988            7    5.4709248    865.15896   0.99866041 
   50600   0.79324543    -6.624844    4.7248004 0.0077812918 0.0083237597           12    5.4311668    869.52575    0.9936451 
   50700   0.78571337   -6.6095645    4.7398311 0.0077906493 0.0083235867           11    5.5379046    869.46176   0.99371823 
   50800   0.79009745   -6.6679629     4.709282 0.0077252001 0.0083231461           10    5.8328011    861.24337    1.0032008 
   50900   0.78416712    -6.707651    4.7464478 0.0077708705 0.0083225134            4    5.5335789    862.17039    1.0021221 
   51000   0.79811483   -6.6401133    4.7684703  0.007791618 0.0083224839            2    5.4446425    869.32472   0.99387487 
   51100    0.7891727   -6.5678632    4.7448278 0.0077378143 0.0083221089            4    6.0819037    865.21136   0.99859993 
   51200   0.78761186   -6.5933219    4.7713621 0.0077658888 0.0083217102            4    5.9220661    865.30871   0.99848758 
   51300   0.76655688   -6.6428571    4.7804467 0.0077655078 0.0083215842            2    5.6853391     864.9802    0.9988668 
   51400   0.80973908   -6.6552605    4.7834237 0.0077552264  0.008320861           10     5.337912    869.32753   0.99387166 
   51500   0.81055345   -6.6215418    4.7740609 0.0077250176 0.0083202071            8    5.8716599    863.86949    1.0001511 
   51600   0.77777558   -6.6451181    4.7930791 0.0077407607 0.0083194891           12    5.6320857     865.7123    0.9980221 
   51700   0.80676445    -6.643095    4.8083068 0.0077503333 0.0083187077            9    5.7826147    863.41839    1.0006736 
   51800    0.7617491   -6.6511111    4.8441731 0.0077930712 0.0083184408           24    5.5959647    865.95112   0.99774684 
   51900   0.75868284   -6.6024643    4.8682951 0.0078167872 0.0083183517           28    5.4587821    870.72682   0.99227447 
   52000   0.81482713    -6.650226    4.8748173 0.0078122072 0.0083184405           45    5.0255432    874.12872   0.98841279 
   52100   0.77936406   -6.6429783    4.8577206 0.0077698665 0.0083179902           29    5.4614549    867.94231   0.99545787 
   52200   0.81106796    -6.683004    4.8506148 0.0077436378 0.0083174106           43    5.6946283    862.16953    1.0021231 
   52300   0.81548675   -6.6215344    4.8677245 0.0077560937 0.0083168787           28     5.901662     863.5639     1.000505 
   52400    0.8117865   -6.6060907    4.8784448 0.0077583409 0.0083165445           18    6.1966667    860.56656    1.0039897 
   52500   0.80081203    -6.627693    4.8912652 0.0077639129 0.0083163731           13    5.9436489    862.04316      1.00227 
   52600   0.82420896   -6.6318233    4.9100092 0.0077788485 0.0083161848           17    5.8465978    863.71343    1.0003318 
   52700   0.76879292   -6.6522427    4.9234862 0.0077853988 0.0083161551           16    5.7987505    862.10831    1.0021943 
   52800   0.78139748   -6.6848089    4.9571975 0.0078238595 0.0083161652           13    5.2662482    867.45562   0.99601637 
   52900   0.80397385   -6.6674473    4.9690453 0.0078277335 0.0083163135           24    5.3857131    867.67696   0.99576229 
   53000   0.78058727   -6.6416775    5.0029953 0.0078663448 0.0083166962           34    5.6446499    865.77483   0.99795001 
   53100   0.79826248   -6.6381109    5.0507432 0.0079264644 0.0083179439           16    5.7434967    864.42734   0.99950563 
   53200   0.84826716   -6.6484776    5.0977406 0.0079851826 0.0083199494           17    5.5449594    867.38322   0.99609951 
   53300   0.78179783   -6.6183956    5.0712697 0.0079288143 0.0083219451           22    5.9129253     863.7266    1.0003165 
   53400   0.79089325    -6.675345    5.0868257 0.0079382422 0.0083235786           23    5.7079513    861.92448     1.002408 
   53500   0.82374294   -6.6623333    5.1275662 0.0079868631 0.0083255188           63    5.4774161     867.1345   0.99638522 
   53600   0.82799892   -6.6558208    5.1580634 0.0080193771 0.0083279071           40    5.2889809    869.61791   0.99353979 
   53700   0.76652237   -6.6621021    5.1256107 0.0079540824 0.0083297952           62    5.3764777    867.35977   0.99612644 
   53800   0.80350706    -6.631275    5.0968089 0.0078946853 0.0083309689           67    5.7814389    864.43257   0.99949959 
   53900   0.79765868   -6.6671121    5.0895963 0.0078688872 0.0083317258           20    5.4829684    865.67978   0.99805958 
   54000    0.8130641   -6.6695213    5.0909629 0.0078564242 0.0083321738           21    5.7631466    862.44223    1.0018062 
   54100    0.7952259   -6.6821385    5.1083726 0.0078687193  0.008332612           13    5.8259082    859.72016    1.0049782 
   54200    0.8246691   -6.6478005    5.1501764 0.0079184753 0.0083335968           16    5.7517278    863.61456    1.0004463 
   54300   0.80347371    -6.624884    5.1424788 0.0078920791 0.0083350707           31    6.0040846    861.67268    1.0027009 
   54400   0.78336739   -6.6362082    5.1524248 0.0078928076 0.0083360246           32    6.0040818     861.2884    1.0031483 
   54500    0.8191401   -6.7009551    5.1611273 0.0078916318 0.0083368599           14    5.3459745    866.03058    0.9976553 
   54600   0.77578905   -6.6776327    5.1778916 0.0079027648 0.0083374068           24    5.0907364    870.00509   0.99309764 
   54700   0.80716654   -6.6832809    5.1758785 0.0078852506 0.0083378024           10    5.3922413    865.99768   0.99769321 
   54800   0.83371419   -6.6124252    5.1898111 0.0078920484 0.0083384968            8    5.9645196    863.84139    1.0001836 
   54900   0.82160997   -6.6393978    5.1972853 0.0078890183 0.0083393738           11    5.8136673    863.39751    1.0006978 
   55000   0.76983526   -6.6440721    5.1897759 0.0078632968 0.0083398473           29    5.8120703    862.65535    1.0015587 
   55100   0.78402606   -6.6620918    5.1811026 0.0078359083 0.0083399137           25    5.4596279    866.00613   0.99768346 
   55200   0.82038647   -6.7037327    5.1994318 0.0078493836  0.008339511            5     5.299462    866.38386    0.9972485 
[...]
   89400   0.78957603    -6.655539    8.4103868 0.0078396596 0.0081319956           40    5.2127653    870.55156   0.99247424 
   89500   0.76039822   -6.6688477    8.3767388 0.0077995705 0.0081311928           12     5.295295    867.48618   0.99598129 
   89600   0.79241821   -6.6627926     8.395285 0.0078081147 0.0081304106            5    5.4638651    866.34758   0.99729026 
   89700   0.81684356   -6.6199193    8.3579265 0.0077647031 0.0081296571            7     5.729596    866.00073   0.99768969 
   89800   0.76250669   -6.6308101    8.3322703 0.0077322478 0.0081286846            5    5.8309847    863.23169      1.00089 
   89900   0.78176497   -6.6132809    8.3215486 0.0077137084 0.0081275187            6    6.1504273    860.31396    1.0042845 
   90000   0.84065029   -6.6509274    8.3547813 0.0077359086 0.0081264119            9    5.7096452    864.13314   0.99984593 
   90100   0.82860714   -6.6579098    8.3905876 0.0077604398 0.0081254467            4    5.4499809    867.30229   0.99619245 
   90200   0.76839498   -6.6477994    8.3754812 0.0077378798 0.0081244185           10    5.6408578    864.73409   0.99915108 
   90300   0.82024046   -6.6579319    8.4157192 0.0077664444 0.0081234199            9    5.6144893    865.10483    0.9987229 
   90400   0.80362977   -6.6643829    8.4348775 0.0077755139 0.0081226385            9    5.6329026    864.22609   0.99973839 
   90500   0.79637142   -6.6591646    8.3924149 0.0077278222 0.0081217463            5    5.9875606    858.99477    1.0058268 
   90600     0.798943   -6.6298835    8.4297303  0.007753615 0.0081207751            6    5.8336497    863.22873    1.0008935 
   90700   0.84289851   -6.6646393    8.4708804 0.0077828743 0.0081200236            9    5.4301314    867.26335   0.99623719 
   90800   0.79106166    -6.706881    8.4476069 0.0077529432 0.0081190141           13    5.3489173    864.67479    0.9992196 
   90900   0.77434159   -6.6408126    8.4452997 0.0077422989  0.008117963            8     5.884852     861.8541    1.0024899 
   91000   0.84444595   -6.6452169    8.4682604 0.0077548172  0.008117092           14    6.0379673    860.58851    1.0039641 
   91100   0.79615225   -6.6368879    8.4672083 0.0077453423 0.0081162763            8    6.0820309    859.82486    1.0048558 
   91200   0.82843484   -6.6573983    8.4887409 0.0077565249 0.0081154643            9    5.8328958    862.03062    1.0022846 
   91300   0.78417215    -6.593526    8.5087835  0.007766323 0.0081147282            4    5.9236714     864.3433   0.99960283 
   91400   0.80117636   -6.6745547    8.5460787 0.0077918295 0.0081139912           11    5.4630856    865.69926   0.99803712 
   91500   0.79120199   -6.6991807    8.5418833 0.0077794929 0.0081132742            8    5.6870337     860.4171    1.0041641 
   91600   0.81107996   -6.6828391    8.5362532 0.0077658781 0.0081126007            7    5.7652435    861.73653    1.0026266 
   91700   0.80653596   -6.6842149    8.5472728 0.0077674234 0.0081117807            9     5.730479    861.25695    1.0031849 
   91800   0.82838425   -6.7552539    8.5517966 0.0077630687  0.008111027            5     5.482455    859.84641    1.0048306 
   91900   0.80237581   -6.6238005    8.5788052 0.0077791124 0.0081103027           15    5.6612036    866.06099   0.99762027 
   92000   0.77951045    -6.597913    8.5505867 0.0077450966 0.0081093482           14    5.8729262    864.68368   0.99920932 
   92100   0.77791761   -6.6899858    8.5189583 0.0077080693 0.0081082253            8    5.7332332    860.36097    1.0042297 
   92200   0.81093664   -6.6847278    8.5331648 0.0077125495 0.0081070633            6    5.6662893    862.46887    1.0017753 
   92300   0.80331949   -6.6457575    8.5632154 0.0077313248 0.0081059338           15    5.8193061    863.01465    1.0011418 
   92400   0.77611837   -6.6594312    8.5415991 0.0077034624 0.0081048623           45    5.9505124    859.79382    1.0048921 
   92500   0.80623363    -6.677497    8.5336508 0.0076879736 0.0081035955           39     5.824886    860.38571    1.0042008 
   92600   0.82891258   -6.6890835    8.5646388 0.0077075583 0.0081024355           44    5.4577207    864.77973   0.99909835 
   92700   0.80148481   -6.5943976    8.5710301 0.0077049893 0.0081012642           43    5.9855668     863.9773    1.0000263 
   92800    0.8149059   -6.5963508    8.5892119 0.0077130135 0.0081001388           41    5.7452856    867.89389   0.99551341 
   92900   0.79323771   -6.6685908    8.5772013 0.0076939373 0.0080989214           10    5.6901354    863.02599    1.0011286 
   93000   0.79527549   -6.6986726     8.631021 0.0077338897 0.0080976428           20    5.2370181    867.06927   0.99646018 
   93100   0.77496377   -6.6003975    8.6271154 0.0077220868 0.0080965655           15    5.8919548    864.75861   0.99912275 
   93200   0.77938917   -6.6166309    8.5950571 0.0076851368 0.0080954005           16       6.1479    861.16239    1.0032951 
   93300    0.7695121   -6.6588463    8.5943892 0.0076763032 0.0080940924           15    5.9979085    859.21292    1.0055715 
   93400   0.82163609   -6.6714845    8.6686645 0.0077343545 0.0080929032           13     5.384713    867.23259   0.99627252 
   93500   0.80015024   -6.6514233    8.6661537 0.0077238446 0.0080918757           12    5.5083763    866.73693   0.99684226 
   93600   0.80294939   -6.6837152    8.6210116  0.007675402 0.0080906821           21    5.5676192    863.91936    1.0000933 
   93700   0.80719544   -6.6434179     8.611559 0.0076588037 0.0080892274           27    5.7864171    863.88924    1.0001282 
   93800    0.8134381   -6.6569343    8.6198392  0.007657995 0.0080878246           36    5.8230469    862.17529    1.0021164 
   93900   0.76891239    -6.651972    8.6064891 0.0076379917 0.0080863416           24    6.1288028    858.13917    1.0068297 
   94000   0.81271073   -6.6523393    8.7129407 0.0077242382 0.0080850277           24    5.1632957    871.46818   0.99143034 
   94100   0.77851521   -6.6561987    8.7154843 0.0077182822 0.0080837679           32    5.1984299    870.32414   0.99273358 
   94200   0.78947401   -6.6641521    8.7496607 0.0077403226 0.0080826838           14    5.3227724    868.35873    0.9949805 
   94300   0.78777019   -6.6210136    8.7566648  0.007738304 0.0080816341           12     5.898322    863.57186    1.0004958 
   94400   0.82674317   -6.6820878    8.7495094 0.0077237901 0.0080808304           35     5.697384    862.36752     1.001893 
   94500   0.82031575   -6.6313622    8.7542484 0.0077197958 0.0080799171           14    6.0142074    861.57854    1.0028105 
   94600   0.80327599   -6.5943514    8.7894618 0.0077426549 0.0080790579           20    5.8575503    865.97417   0.99772029 
   94700   0.80136879   -6.6828194    8.7129534 0.0076671536 0.0080779075           20    5.6600627    862.23665    1.0020451 
   94800   0.79848802   -6.6641773    8.7358279 0.0076791736 0.0080765482           27    5.5700315    864.75838   0.99912302 
   94900   0.81061735   -6.6819185    8.7539814 0.0076870227 0.0080752906           13    5.3966729    866.45576   0.99716574 
   95000   0.80724268   -6.6700731    8.7675839  0.007690863 0.0080740285            9    5.6146188    864.27742   0.99967901 
   95100    0.8291956   -6.5948433    8.7524363 0.0076695025 0.0080727975           10    6.0612422    862.99927    1.0011596 
   95200   0.78949918   -6.6179002    8.7609389  0.007668889  0.008071599           13    6.0543893     861.1092    1.0033571 
   95300   0.81740262   -6.6464022    8.8162127 0.0077091751 0.0080704908           19     5.768711    863.41049    1.0006828 
   95400   0.80727352   -6.6567126    8.8585776 0.0077381006 0.0080696167           14    5.6908671    864.11534   0.99986652 
   95500   0.78071292   -6.6932631    8.8843491 0.0077524861 0.0080687908            9    5.5590948    861.83696    1.0025098 
   95600   0.81458841   -6.6556241    8.9148274 0.0077709444 0.0080681022            9     5.619213    864.95522   0.99889564 
   95700   0.80313167   -6.6188379    8.8594806 0.0077146295 0.0080673327            7    6.1959617    859.61254     1.005104 
   95800   0.76626736   -6.6745098      8.90214 0.0077436847 0.0080664323            6    5.5385945    864.27902   0.99967716 
   95900   0.76626487   -6.6794606    8.9593521  0.007785325 0.0080655625            7    5.0442845    870.39628    0.9926513 
   96000   0.77853498   -6.6326454    8.9650526 0.0077821636 0.0080648761            3    5.4098487    869.00244   0.99424347 
   96100   0.77506181   -6.6452777    8.9600873   0.00776976 0.0080641592            5    5.5116118    866.99506   0.99654547 
   96200   0.78586682   -6.6444924    8.9497942 0.0077527669  0.008063373            5    5.5960198    866.15093   0.99751667 
   96300   0.80282662   -6.6289529    8.9302137 0.0077277723 0.0080624993            4    5.7201038    865.16256   0.99865626 
   96400   0.79980062   -6.5933818    8.9025667 0.0076958564 0.0080614821            4    5.8066048    866.65297   0.99693884 
   96500   0.79111232   -6.6369376    8.8633322 0.0076540001 0.0080602959            3    5.7649662    864.05665   0.99993444 
   96600   0.78384476   -6.6543151    8.8870227 0.0076665136 0.0080589093           12    5.6473719    864.14541   0.99983173 
   96700   0.80855532   -6.6253549    8.8850353 0.0076568729 0.0080575552            3    5.6743498    865.66964   0.99807128 
   96800   0.77615766     -6.63998    8.9107639 0.0076711121 0.0080562959            4    5.8420028    862.76326    1.0014335 
   96900   0.81433764   -6.7079463    8.9007358 0.0076545715 0.0080548896            5    5.4002899    864.14247   0.99983513 
   97000   0.79898592   -6.6691785     8.926323 0.0076686623 0.0080534848            3    5.3842577    867.25296   0.99624912 
   97100   0.76936759   -6.5926348    8.9928855   0.00771789 0.0080523421            5     5.714097    867.65254   0.99579032 
   97200   0.78668964   -6.5974399     8.982397 0.0077009576 0.0080514005            3    6.0342596    863.41909    1.0006728 
   97300   0.79475692   -6.6649208    8.9882821 0.0076980833 0.0080504051           13    5.9707564    860.21532    1.0043997 
   97400   0.81255882   -6.6747068    8.9880289 0.0076899631 0.0080494073            7    5.7068146    862.26441    1.0020128 
   97500    0.7650964   -6.6835158    9.0135549  0.007703893  0.008048297            7    5.3300891    866.43425    0.9971905 
   97600   0.79409668   -6.6449784    9.0936133 0.0077643555 0.0080473332            4    5.3094553    870.09367   0.99299653 
   97700   0.77498211   -6.5996699     9.106897 0.0077677388 0.0080466855            3     5.635907       868.81   0.99446369 
   97800    0.8019965   -6.7220157    9.0715677 0.0077296929 0.0080458309            6     5.274411    864.57781   0.99933168 
   97900   0.81062266   -6.6558445    9.0492498 0.0077028002 0.0080448436           11    5.6601462    864.65832   0.99923864 
   98000    0.8270434    -6.637092    9.0165896  0.007667168 0.0080437721            6    5.9371167    862.50654    1.0017315 
   98100    0.8269113    -6.620431    9.0509542 0.0076885442 0.0080427746            4    6.1696598    860.51101    1.0040546 
   98200   0.80304115   -6.6523273    9.0812462 0.0077064207 0.0080419608            8    6.0756359    858.85764    1.0059874 
   98300   0.78098613   -6.6913267    9.1211186 0.0077323827 0.0080411341            6    5.6167062    862.00006    1.0023201 
   98400   0.79687818   -6.6883457     9.157778 0.0077555708 0.0080403654           12     5.446089    864.95561   0.99889519 
   98500   0.80361843   -6.6648405    9.1384357 0.0077313331  0.008039591           15     5.708534     863.5469    1.0005247 
   98600   0.80439595   -6.6664546    9.1230486 0.0077104873 0.0080386775            9    5.5651571    865.09177   0.99873797 
   98700   0.76707318   -6.6914844    9.1438273 0.0077202189 0.0080377478           14    5.4913236    863.86961    1.0001509 
   98800   0.80380235   -6.6498558    9.1928674  0.007753768  0.008036926            9    5.5456001    866.44364   0.99717969 
   98900   0.80831772    -6.651364    9.2200622 0.0077688424 0.0080363383           13     5.586755    865.88279   0.99782558 
   99000   0.77133918   -6.6511571    9.2192703 0.0077603285 0.0080357414           15    5.7005618    863.61921    1.0004409 
   99100   0.84268151   -6.6642783    9.2781073 0.0078019738 0.0080352573            6    5.2707477    869.88107   0.99323923 
   99200   0.79838509     -6.61092    9.2603462 0.0077791886 0.0080348213            9    5.5759103    868.85169   0.99441598 
   99300     0.771541   -6.6378187    9.1943741 0.0077159903 0.0080341597           14     5.974231    860.71517    1.0038164 
   99400   0.78975079   -6.6789768    9.2160442 0.0077263952 0.0080333624           32    5.7297265    861.85864    1.0024846 
   99500   0.81929122   -6.6917833     9.241472 0.0077399263 0.0080325713           13    5.2917339     867.4747   0.99599447 
   99600   0.82336507   -6.6289811    9.2248249 0.0077182269 0.0080317711           12     5.626323    867.78335   0.99564021 
   99700   0.78575219   -6.6166479    9.1823613 0.0076749927 0.0080308107           22    6.0176855    861.68878    1.0026822 
   99800   0.80913035   -6.6361953    9.1797691 0.0076651378 0.0080297702           14    5.8080946    863.83835    1.0001871 
   99900   0.85193369   -6.6407277    9.2354602 0.0077039208 0.0080287358           15     5.689335    865.41489   0.99836507 
  100000   0.79211508   -6.6591915    9.2636773  0.007719731  0.008027931           33     5.673815     864.0083    0.9999904 
  100100    0.8379501   -6.7082522    9.2479968  0.007698965  0.008027043            9    5.5744877    861.85799    1.0024853 
  100200    0.7725936   -6.6249645     9.281881 0.0077194619 0.0080261881           14    5.8769286    863.12947    1.0010086 
  100300   0.78316508   -6.5919245    9.3131974 0.0077377845 0.0080254277           15    5.7339549    867.55009   0.99590791 
  100400   0.75575425   -6.6153723     9.322331 0.0077376585 0.0080246807           16    5.4508212    869.64624   0.99350743 
  100500   0.77162563   -6.6368835    9.3007973 0.0077121039 0.0080237717           28    5.8015231    862.92839    1.0012418 
  100600   0.79771427   -6.6163235    9.3971188 0.0077842269 0.0080232024           30    5.6636382    866.88891   0.99666749 
  100700   0.80398872   -6.6359886    9.4153984 0.0077916239 0.0080228811           33    5.4952397     868.5618   0.99474787 
  100800   0.79460804   -6.6845878    9.4166634 0.0077849399 0.0080224238           43    5.4187084    865.92572   0.99777612 
  100900     0.739546   -6.6706475    9.4055788 0.0077680697 0.0080219306           48    5.6757382    862.70053    1.0015063 
  101000    0.7569766   -6.6016934    9.4468877 0.0077944618 0.0080214632           53    5.5928775    868.91877   0.99433921 
  101100   0.78663888   -6.6488627    9.4230933 0.0077671392 0.0080209162           53    5.3791341    868.82742   0.99444375 
  101200   0.74823688   -6.6532378    9.4016067 0.0077417709  0.008020235           60    5.6277453    864.12239   0.99985836 
  101300   0.79139555   -6.6995033    9.4333139 0.0077602121 0.0080195648           39    5.4220287    864.55907   0.99935334 
  101400   0.81244892   -6.6315476    9.4462807 0.0077632156 0.0080190138           53    5.9229754    862.10208    1.0022015 
  101500   0.77974013   -6.6255421    9.4106062 0.0077262777 0.0080184931           41    6.2086771    858.61683    1.0062696 
  101600   0.82697567   -6.6632286    9.4775501 0.0077735811 0.0080180077           32    5.7019051    863.73011    1.0003125 
  101700   0.77692255   -6.6148323    9.4717751 0.0077612054 0.0080176048           40     5.739755    866.24329   0.99741032 
  101800   0.80234672   -6.6963697    9.4657874 0.0077486799 0.0080169067           15    5.2772753    866.69646    0.9968888 
  101900   0.83594591   -6.6631697    9.4513581 0.0077292754 0.0080161775           22    5.7234474    863.27516    1.0008396 
  102000   0.77781312   -6.6361465     9.545552 0.0077986535 0.0080156626            5    5.4730172    868.47932   0.99484234 
  102100   0.76662475   -6.6687091    9.5496814 0.0077943857 0.0080151951           47    5.1343322    870.27956   0.99278444 
  102200   0.80206967   -6.6853731    9.5356876 0.0077753486 0.0080146851           20    5.1655643    868.63199   0.99466749 
  102300   0.75656362   -6.6802708    9.5157607 0.0077515157 0.0080140242            8    5.3831985    865.46956   0.99830201 
  102400   0.80935692   -6.6901312    9.4790398 0.0077140623 0.0080132281           30    5.4085888    865.71105   0.99802353 
  102500   0.80810478   -6.6507349    9.4577778 0.0076892502  0.008012294           11    5.8101055    862.66903    1.0015429 
  102600    0.7836581   -6.6758089    9.4817207 0.0077012026 0.0080114186           18    5.6395985    863.23281    1.0008887 
  102700   0.81974256   -6.7096761    9.5424453 0.0077429774 0.0080106152           17     5.385281    864.48533   0.99943859 
  102800   0.79854289   -6.5859015    9.5700617 0.0077578321 0.0080101791            2    5.8053013    867.35869   0.99612768 
  102900   0.76890235   -6.5773146     9.557803 0.0077403652 0.0080095893            7    6.0222677    864.70018   0.99919026 
  103000   0.73770508   -6.6393677    9.5749441 0.0077467185 0.0080090053           10    5.7799104    863.45902    1.0006265 
  103100   0.76159087   -6.6181387    9.6433036 0.0077944581 0.0080085031            5    5.5486921    868.79467   0.99448124 
  103200   0.81880307   -6.6634976    9.7045811 0.0078363865 0.0080082502            6    5.2278139    870.44253   0.99259856 
  103300   0.78767344   -6.6342397    9.6842843 0.0078124268 0.0080081224            3    5.6113719    866.24329   0.99741033 
  103400   0.80674364   -6.5986326    9.6769868   0.00779899 0.0080078581            5    5.9522803    865.05742   0.99877763 
  103500   0.78205633   -6.5860716    9.7137331 0.0078210411 0.0080077985            8    5.7616128    868.19822   0.99516444 
  103600   0.76763081   -6.6210413    9.6886508 0.0077933163 0.0080076037            4    5.6859598     866.4543   0.99716742 
  103700   0.77836606   -6.6661695     9.647885 0.0077530416 0.0080070692            9    5.6730411    862.98718    1.0011736 
  103800   0.80854497   -6.6659891    9.6806122 0.0077718466 0.0080065736            7    5.4845495     865.8946   0.99781197 
  103900   0.83276713   -6.6342358    9.7202678 0.0077961724 0.0080062886            3    5.5870678    867.63707   0.99580808 
  104000   0.80375659   -6.6256314     9.732975 0.0077988582 0.0080061158           11    5.7735041    865.18948   0.99862518 
Loop time of 192.063 on 12 procs for 100000 steps with 864 atoms

Performance: 89970.281 tau/day, 520.661 timesteps/s
99.4% CPU use with 12 MPI tasks x no OpenMP threads

MPI task timing breakdown:
Section |  min time  |  avg time  |  max time  |%varavg| %total
---------------------------------------------------------------
Pair    | 9.7088     | 10.309     | 10.84      |  11.0 |  5.37
Neigh   | 0.91898    | 0.95198    | 0.99166    |   2.4 |  0.50
Comm    | 7.4421     | 8.1237     | 8.7062     |  14.3 |  4.23
Output  | 1.9484     | 1.9495     | 1.9574     |   0.2 |  1.02
Modify  | 168.54     | 168.89     | 169.12     |   1.1 | 87.93
Other   |            | 1.842      |            |       |  0.96

Nlocal:        72.0000 ave          80 max          68 min
Histogram: 2 1 5 1 0 1 0 1 0 1
Nghost:        1582.00 ave        1602 max        1560 min
Histogram: 2 0 0 0 4 1 2 1 0 2
Neighs:        8249.08 ave        9615 max        7716 min
Histogram: 3 4 1 1 2 0 0 0 0 1
FullNghs:      16498.4 ave       18380 max       15542 min
Histogram: 2 1 5 1 0 1 0 1 0 1

Total # of neighbors = 197981
Ave neighs/atom = 229.14468
Neighbor list builds = 4967
Dangerous builds = 0

#clear
#
#next RN
#
#jump SELF



Total wall time: 0:03:12
