
units lj                  # Use reduced LJ style units
atom_style atomic         # Uncharged point particles
atom_modify map hash      # Needed for indexing of clusters etc
                          # Used to be able to find where atoms are in relation to each other.

# Define a lattice with which to populate the simulation cell. With units
# set to 'lj' the second argument to the lattice command is the reduced
# density rho* and the spacings are multiples of that required to acheive
# that density. Also define a simulation cell called 'box' in lattice units
# and fill it with atoms. Here we're creating a box which is ten lattice
# constants in each direction.
lattice fcc 1.0 spacing 1 1 1                 # All equal sizes - gives the right reduced density.
Lattice spacing in x,y,z = 1.5874011 1.5874011 1.5874011

region box block 0 6 0 6 0 6 units lattice # Defines a region, "box", in lattice units
create_box 1 box                              # Creates a simulation box as specified above,
Created orthogonal box = (0.0000000 0.0000000 0.0000000) to (9.5244063 9.5244063 9.5244063)
  2 by 2 by 3 MPI processor grid
                                              # with one type of atom
create_atoms 1 box                            # Creates particles on lattice points
Created 864 atoms
  using lattice units in orthogonal box = (0.0000000 0.0000000 0.0000000) to (9.5244063 9.5244063 9.5244063)
  create_atoms CPU = 0.001 seconds


# Set the mass of the first (and only) atom type.
mass 1 1.0

# Lennard-Jones interactions between particles, 3.5 sigma cut-off. Apply
# long range tail corrections to energy and pressure and set all coefficients
# to unity since we work in reduced units here. Note that this doesn't shift
# the potential such that it goes to zero at the cutoff. That would require
# pair_modify('shift', 'yes').
pair_style lj/cut  3.5      # non-GPU version
pair_modify tail  yes
pair_coeff 1  1  1.0  1.0   # Intearaction between 1 and 1 set with epsilon = 1 and sigma = 1

write_data data.*
System init for write_data ...
Neighbor list info ...
  update every 1 steps, delay 10 steps, check yes
  max neighbors/atom: 2000, page size: 100000
  master list distance cutoff = 3.8
  ghost atom cutoff = 3.8
  binsize = 1.9, bins = 6 6 6
  1 neighbor lists, perpetual/occasional/extra = 1 0 0
  (1) pair lj/cut, perpetual
      attributes: half, newton on
      pair build: half/bin/atomonly/newton
      stencil: half/bin/3d
      bin: standard

#############################
#   M E L T   S Y S T E M   #
#############################

velocity all create 2.4 2750902 mom yes dist gaussian # Assign velocities
                                                    # Temperature 2.4, random number seed, zero linear momentum
						                                                        # Gaussian distribution

timestep 0.002   # simulation timestep
thermo 100       # output thermodynamic data every 100 steps

# Define a fix  in this case with index 1 applied to all
# particles in the simulation. This fix is for simulations
# in the anisotropic NPT ensemble. Note that we use the MTK
# correction.
fix 1 all npt temp 2.4 2.4 0.1 iso 5.68 5.68 0.5 mtk yes tchain 5 pchain 5 # Use NPT ensemble
                                                                         # Set temperature and pressure and damping
                                                                         # Numbers of thermostats in chain and in barostat
run 1000         # run for 10000 steps
Per MPI rank memory allocation (min/avg/max) = 3.633 | 3.633 | 3.634 Mbytes
Step Temp E_pair E_mol TotEng Press Volume 
       0          2.4   -8.3859253            0    -4.790092     -2.24275          864 
     100    1.3007594   -6.4407842            0   -4.4919034    5.3582762    891.69205 
     200    1.5828213   -6.0796178            0   -3.7081338    6.4338598    907.46239 
     300    1.7629056     -5.73851            0   -3.0972122    5.5953229    954.02439 
     400    1.8733232   -5.2785237            0   -2.4717912    6.0585808    994.36537 
     500      2.02574   -4.9360708            0   -1.9009777    5.7478153    1042.8978 
     600    2.2112838   -4.6895875            0   -1.3765009    5.7138268    1079.0368 
     700    2.3146746   -4.4629638            0  -0.99497044    5.6088298    1118.0222 
     800    2.4734008     -4.39503            0   -0.6892229    5.7937797    1123.7282 
     900    2.4206618   -4.2767239            0  -0.64993368    5.5531987    1146.9555 
    1000    2.3618098   -4.2459295            0  -0.70731524    5.7000582    1143.3852 
Loop time of 0.193856 on 12 procs for 1000 steps with 864 atoms

Performance: 891385.151 tau/day, 5158.479 timesteps/s
99.7% CPU use with 12 MPI tasks x no OpenMP threads

MPI task timing breakdown:
Section |  min time  |  avg time  |  max time  |%varavg| %total
---------------------------------------------------------------
Pair    | 0.066871   | 0.078027   | 0.10463    |   4.5 | 40.25
Neigh   | 0.011742   | 0.013022   | 0.016394   |   1.3 |  6.72
Comm    | 0.054216   | 0.084217   | 0.096613   |   4.8 | 43.44
Output  | 0.00019689 | 0.00020372 | 0.0002346  |   0.0 |  0.11
Modify  | 0.015916   | 0.01665    | 0.01715    |   0.3 |  8.59
Other   |            | 0.001736   |            |       |  0.90

Nlocal:        72.0000 ave          80 max          66 min
Histogram: 2 1 2 2 1 0 2 0 0 2
Nghost:        1314.75 ave        1327 max        1295 min
Histogram: 1 0 0 2 3 0 0 1 2 3
Neighs:        6211.67 ave        7136 max        5326 min
Histogram: 2 0 0 2 1 4 1 0 0 2

Total # of neighbors = 74540
Ave neighs/atom = 86.273148
Neighbor list builds = 80
Dangerous builds = 2

# Equilibrate just above the melting temperature to avoid step fn in T

fix 1 all npt temp 1.25 1.25 0.1 iso 5.68 5.68 0.5 mtk yes tchain 5 pchain 5
run 1000
Per MPI rank memory allocation (min/avg/max) = 3.634 | 3.634 | 3.634 Mbytes
Step Temp E_pair E_mol TotEng Press Volume 
    1000    2.3618098   -4.2459295            0  -0.70731524    5.7000582    1143.3852 
    1100    1.8617945   -4.5967525            0    -1.807293    5.9593679    1083.5566 
    1200      1.66126   -5.0091582            0   -2.5201524    5.9308167    1028.0056 
    1300    1.4533368   -5.3154554            0   -3.1379734    5.5185254    997.93023 
    1400    1.3100587   -5.5224566            0    -3.559643    5.2858775     978.0358 
    1500    1.3306301   -5.7450087            0   -3.7513736    5.2687861    956.68836 
    1600    1.2302857    -5.777427            0   -3.9341343     5.385203    950.58576 
    1700    1.2545134   -5.8251615            0   -3.9455694    5.6370291    940.07281 
    1800    1.2669685   -5.8434457            0   -3.9451925    6.1076728    931.13358 
    1900    1.2975362   -5.8185374            0   -3.8744858    5.5765884    942.23221 
    2000    1.2225624   -5.8503078            0   -4.0185867    5.1330896    948.19804 
Loop time of 0.171182 on 12 procs for 1000 steps with 864 atoms

Performance: 1009450.144 tau/day, 5841.725 timesteps/s
99.9% CPU use with 12 MPI tasks x no OpenMP threads

MPI task timing breakdown:
Section |  min time  |  avg time  |  max time  |%varavg| %total
---------------------------------------------------------------
Pair    | 0.069745   | 0.077876   | 0.088112   |   1.9 | 45.49
Neigh   | 0.0098106  | 0.01068    | 0.012106   |   0.6 |  6.24
Comm    | 0.05433    | 0.065733   | 0.074421   |   2.2 | 38.40
Output  | 0.00019008 | 0.00020037 | 0.00022969 |   0.0 |  0.12
Modify  | 0.014314   | 0.014812   | 0.015185   |   0.2 |  8.65
Other   |            | 0.001882   |            |       |  1.10

Nlocal:        72.0000 ave          79 max          65 min
Histogram: 1 1 0 4 0 1 1 3 0 1
Nghost:        1466.08 ave        1476 max        1447 min
Histogram: 1 1 0 0 2 0 0 4 1 3
Neighs:        7466.67 ave        8131 max        6694 min
Histogram: 1 0 2 0 3 1 3 0 0 2

Total # of neighbors = 89600
Ave neighs/atom = 103.70370
Neighbor list builds = 67
Dangerous builds = 0


# Small amount of linear quench

fix 1 all npt temp 1.25 ${temp} 0.1 iso 5.68 5.68 0.5 mtk yes tchain 5 pchain 5
fix 1 all npt temp 1.25 0.77 0.1 iso 5.68 5.68 0.5 mtk yes tchain 5 pchain 5
run 2000
Per MPI rank memory allocation (min/avg/max) = 3.634 | 3.634 | 3.634 Mbytes
Step Temp E_pair E_mol TotEng Press Volume 
    2000    1.2225624   -5.8503078            0   -4.0185867    5.1330896    948.19804 
    2100    1.2462233   -5.8651511            0   -3.9979796     5.405684    941.19862 
    2200    1.2198113    -5.912472            0   -4.0848728    5.7811226    929.20453 
    2300    1.1721071   -5.9286007            0   -4.1724749    6.3046125    918.36769 
    2400    1.1703602   -5.9905767            0   -4.2370683    5.9108653    919.62429 
    2500    1.1086475   -6.0001003            0   -4.3390537    5.8140951    918.38636 
    2600    1.1025057   -6.0582566            0   -4.4064121    5.5458709    918.20851 
    2700    1.0940446   -6.0798552            0   -4.4406877    5.5935406    915.92346 
    2800    1.0779967   -6.1508321            0   -4.5357085    5.4302094    912.99714 
    2900    1.0657486   -6.1769507            0    -4.580178    5.5931578    907.69946 
    3000    1.0380097   -6.1881015            0    -4.632889    5.6484802    904.72874 
    3100    1.0001267   -6.2365305            0   -4.7380767    5.4421186    903.91565 
    3200   0.93872935   -6.2424806            0   -4.8360163    5.3824792    902.90482 
    3300   0.94446391   -6.2771602            0    -4.862104    5.8487312    893.01891 
    3400   0.96643566   -6.3572252            0   -4.9092495    5.9681731    885.15999 
    3500   0.87040476   -6.3194927            0   -5.0153966    6.2200454    882.37415 
    3600   0.87185714   -6.4027193            0   -5.0964473    6.0768963    878.72623 
    3700     0.856253   -6.4510825            0   -5.1681896    5.6400314    881.00041 
    3800   0.80823868   -6.4888616            0   -5.2779068    5.4669927    881.15014 
    3900   0.80283116   -6.5020037            0   -5.2991508    5.5751504    876.80305 
    4000   0.76035468   -6.5798162            0   -5.4406042    5.3347665     874.2509 
Loop time of 0.342222 on 12 procs for 2000 steps with 864 atoms

Performance: 1009871.244 tau/day, 5844.162 timesteps/s
99.8% CPU use with 12 MPI tasks x no OpenMP threads

MPI task timing breakdown:
Section |  min time  |  avg time  |  max time  |%varavg| %total
---------------------------------------------------------------
Pair    | 0.15081    | 0.16733    | 0.18299    |   2.1 | 48.89
Neigh   | 0.016598   | 0.017854   | 0.01937    |   0.6 |  5.22
Comm    | 0.10588    | 0.12275    | 0.13989    |   2.6 | 35.87
Output  | 0.00036478 | 0.00038174 | 0.00044176 |   0.0 |  0.11
Modify  | 0.028725   | 0.029443   | 0.029992   |   0.2 |  8.60
Other   |            | 0.004468   |            |       |  1.31

Nlocal:        72.0000 ave          78 max          66 min
Histogram: 2 0 2 1 1 2 0 0 1 3
Nghost:        1561.58 ave        1578 max        1542 min
Histogram: 1 1 1 0 2 1 2 2 1 1
Neighs:        8181.58 ave        9137 max        7129 min
Histogram: 1 0 2 1 1 1 3 2 0 1

Total # of neighbors = 98179
Ave neighs/atom = 113.63310
Neighbor list builds = 110
Dangerous builds = 0

#############################
# F R E E Z E  S Y S T E M  #
#############################

# Define solid atoms. This closely follows ten Wolde  Ruiz-Montero and Frenkel  Faraday Discuss  1996  104  93-110
# Compute components of the per-atom q6 vector
compute q6 all orientorder/atom degrees 1 6 components 6 nnn NULL cutoff 1.3 # compute the Q6 parameter.
                                                                             # Use all neighbours within 1.3 unit cell.

# get number of connections
compute coord_number all coord/atom orientorder q6 0.5

# An atom is solid if it has 8 or more connections (of a possible 14)
variable is_solid atom c_coord_number>=8
group solid dynamic all var is_solid    # Must be dynamic to update
dynamic group solid defined

# do clustering
compute cluster solid cluster/atom 1.3 # Create a cluster where all atoms within are solid and max 1.3 units from another member

# define chunks one chunk per cluster
compute clus_chunks solid chunk/atom c_cluster nchunk every compress yes  # Says which atoms are in which chunk

# count the size of each chunk
compute size_chunks solid property/chunk clus_chunks count


# Find the maximum entry in the vector of chunk sizes
variable max_n equal max(c_size_chunks)


# Thermo style which includes this variable
# thermo_style custom step temp pe vol v_max_n

thermo ${N}  # Print the thermo information every 100 steps
thermo 100  

# Reset the npt fix at a lower temperature (below freezing)

compute myRDF all rdf 100
fix 2 all ave/time 1 50 100 c_myRDF[*] file pcf.rdf mode vector


compute msd all msd com yes
variable twopoint equal c_msd[4]/6/(step*dt+1.0e-6)
fix 9 all vector 10 c_msd[4]
variable fit equal slope(f_9)/6/(10*dt)
thermo_style custom step temp pe c_msd[4] v_twopoint v_fit v_max_n press vol density


fix 1  all npt temp  ${temp} ${temp}  0.1  iso  5.68  5.68  0.5  mtk yes tchain  5  pchain  5
fix 1  all npt temp  0.77 ${temp}  0.1  iso  5.68  5.68  0.5  mtk yes tchain  5  pchain  5
fix 1  all npt temp  0.77 0.77  0.1  iso  5.68  5.68  0.5  mtk yes tchain  5  pchain  5

dump dmp2 all dcd ${N} traj.dcd
dump dmp2 all dcd 100 traj.dcd
dump dmp3 all dcd ${N} traj_unwrap.dcd
dump dmp3 all dcd 100 traj_unwrap.dcd
dump_modify dmp3 unwrap yes


# fix rnuntil all halt ${N} v_max_n >= 3980 error soft message no   # Stop when solidified

run 100000 # 5000000  # Run for this many steps
Neighbor list info ...
  update every 1 steps, delay 10 steps, check yes
  max neighbors/atom: 2000, page size: 100000
  master list distance cutoff = 3.8
  ghost atom cutoff = 3.8
  binsize = 1.9, bins = 6 6 6
  5 neighbor lists, perpetual/occasional/extra = 1 4 0
  (1) pair lj/cut, perpetual
      attributes: half, newton on
      pair build: half/bin/atomonly/newton
      stencil: half/bin/3d
      bin: standard
  (2) compute orientorder/atom, occasional
      attributes: full, newton on
      pair build: full/bin/atomonly
      stencil: full/bin/3d
      bin: standard
  (3) compute coord/atom, occasional
      attributes: full, newton on
      pair build: full/bin/atomonly
      stencil: full/bin/3d
      bin: standard
  (4) compute cluster/atom, occasional
      attributes: full, newton on
      pair build: full/bin/atomonly
      stencil: full/bin/3d
      bin: standard
  (5) compute rdf, occasional, copy from (1)
      attributes: half, newton on
      pair build: copy
      stencil: none
      bin: none
Per MPI rank memory allocation (min/avg/max) = 9.697 | 9.705 | 9.711 Mbytes
Step Temp PotEng c_msd[4] v_twopoint v_fit v_max_n Press Volume Density 
    4000   0.76035468   -6.5798162 1.5850261e-30 3.3021372e-32 8.3333333e+20            4    5.3347665     874.2509   0.98827465 
    4100   0.73976111   -6.6062135  0.035090777 0.00071322709  0.031768341            5    5.5760441    868.26594   0.99508682 
    4200   0.75317507   -6.5992843  0.056098229   0.00111306  0.024859531            6    6.0471774    862.87926    1.0012988 
    4300   0.78608609   -6.5794748  0.074877326 0.0014511108  0.020624121            4    5.9435988    865.98101   0.99771241 
    4400   0.77525162   -6.5839224  0.092561106 0.0017530511  0.018772113            9    5.8284996    866.40805   0.99722065 
    4500    0.7589621   -6.6760254   0.10913558  0.002021029  0.017356891           14    5.2060513    869.37674    0.9938154 
    4600    0.7427448   -6.6694347   0.12009804 0.0021756889  0.016158811            6    5.1474284    869.79656   0.99333573 
    4700   0.72841472    -6.659881    0.1329184 0.0023567091  0.014922573           12    5.7354449    862.00462    1.0023148 
    4800   0.76652748   -6.6222633   0.14492812 0.0025161129  0.014125101            6    6.2142895    859.37945    1.0053766 
    4900   0.78026737   -6.6459167   0.16279741 0.0027686632  0.013655589            5    5.8192592    862.79162    1.0014005 
    5000   0.77190848   -6.6531486    0.1715426 0.0028590431  0.013255912            5    5.4150092     868.1608   0.99520735 
    5100    0.7499732   -6.6271424   0.18045159 0.0029485551  0.012716938            7    5.4259225    869.81074   0.99331954 
    5200   0.77293539   -6.6787835   0.19098048 0.0030605843  0.012277862            9    5.5632669    863.60454    1.0004579 
    5300   0.71609701   -6.6624987   0.20674887 0.0032507681  0.011929806           10     5.696453    861.78693     1.002568 
    5400   0.75796208   -6.6528243   0.22019245 0.0033980313  0.011737325           13    5.6572517    863.51357    1.0005633 
    5500   0.76467737   -6.6863724   0.24567819 0.0037223964  0.011755676           10    5.6071878    862.23814    1.0020434 
    5600   0.74069529   -6.7386998   0.25450391 0.0037872602  0.011830157            8    5.3828901    861.89365    1.0024439 
    5700   0.75598208   -6.6720896   0.26657265 0.0038972606  0.011779162            5    5.5876352     863.6772    1.0003738 
    5800   0.76079141   -6.6347464   0.27962083 0.0040175403   0.01173757           19    5.7156936    864.93006    0.9989247 
    5900   0.81388444   -6.6318298   0.28970599 0.0040918922  0.011672689            3     5.570553    868.58911   0.99471659 
    6000   0.76888436   -6.6326499   0.30179704 0.0041916252  0.011572784            5    5.5750663    867.08763   0.99643908 
    6100   0.76765862   -6.6850424   0.31371968 0.0042857876   0.01151307           10    5.3228942    866.55604   0.99705034 
    6200    0.7710136   -6.7382221   0.31472926 0.0042302316  0.011367214           11    5.1560423    864.54099   0.99937425 
    6300   0.75425225   -6.6994151   0.32423587  0.004288834  0.011194434            6    5.8864117    857.09472    1.0080566 
    6400   0.80413624   -6.6698752    0.3353302 0.0043662783  0.011038134            4    6.0616863    857.97113    1.0070269 
    6500   0.75214019   -6.6610972   0.34405431 0.0044109524  0.010895504            8    5.9864218    859.10429    1.0056986 
    6600   0.72516273   -6.6686253   0.35027018  0.004422603  0.010738493            7    5.7347531    861.52229     1.002876 
    6700   0.77442755    -6.717555   0.35544442 0.0044209502  0.010552934            5    5.1357736    867.06928   0.99646016 
    6800   0.76699791   -6.6477936   0.36503922 0.0044735196  0.010379251           23    5.9208961    860.51449    1.0040505 
    6900   0.76386296   -6.6958369   0.37682314 0.0045510037  0.010233366            5    5.7381226    859.63474     1.005078 
    7000   0.76830341   -6.6791901   0.39010005 0.0046440479  0.010105391            3    5.6886357    860.94915    1.0035436 
    7100   0.77847679   -6.6496078   0.39823011  0.004674062   0.01000747            3    5.7776019    862.30188    1.0019693 
    7200   0.73480855   -6.6302351   0.40809124 0.0047232779 0.0099009523            5    6.0058431    860.33795    1.0042565 
    7300   0.75092745   -6.7424104   0.42569901 0.0048595774 0.0098310072           20    5.3463659    861.69389    1.0026763 
    7400   0.77966641   -6.7060195   0.44145084 0.0049712929 0.0097908989           11    5.3560248     864.5181   0.99940071 
    7500   0.75441402   -6.6841086   0.45064556 0.0050071726 0.0097497056            7    5.1450487     869.1261   0.99410201 
    7600   0.70702031   -6.6510373   0.46185477 0.0050641967 0.0097136556           17    5.5186606    865.77993   0.99794413 
    7700   0.77169466   -6.6988501   0.47370511 0.0051266784 0.0096816938           12    5.5335433    862.68877    1.0015199 
    7800   0.75358021   -6.6588049   0.48707565 0.0052037993 0.0096607981           39    5.8520153    861.66132    1.0027141 
    7900   0.75294398   -6.7366069   0.49717085 0.0052444179 0.0096483301           10    5.4158893    861.56881    1.0028218 
    8000   0.78190337   -6.6791746   0.50166792 0.0052257072 0.0096166099            9    5.7015223    862.02017    1.0022967 
    8100   0.76813107   -6.7033141    0.5160887 0.0053095542 0.0095819671            8    5.5938941    861.25382    1.0031886 
    8200   0.76376037   -6.7254374   0.53994252 0.0054872204  0.009581051            7    5.5343804    859.81449    1.0048679 
    8300   0.75138889   -6.7483997   0.55654609 0.0055878118 0.0096052596           18    5.5731283    858.49954    1.0064071 
    8400   0.76514399    -6.682779   0.57878349 0.0057418994 0.0096429891           18    6.0828509    855.93318    1.0094246 
    8500   0.77272604   -6.6629183   0.59052353  0.005789446 0.0096895564           13    5.7630567     861.9311    1.0024003 
    8600   0.74801396   -6.7178295   0.59627535 0.0057778616 0.0097197822           16    5.2065154    865.20601    0.9986061 
    8700   0.77159473   -6.7200388   0.60339502 0.0057796455  0.009734439           18    5.5049615    860.90596    1.0035939 
    8800   0.74606905   -6.7371272   0.61907864 0.0058624868 0.0097453446           18    5.5567401    859.32769    1.0054372 
    8900   0.76820393     -6.66822   0.62518561 0.0058537975  0.009759458           36    5.9886299    858.56147    1.0063345 
    9000   0.77368814    -6.703298   0.63715804 0.0058996111 0.0097631601           29    5.6430966    861.29099    1.0031453 
    9100   0.77418629   -6.6860167   0.64546538 0.0059108548  0.009763695           11    5.7894468    859.59051    1.0051298 
    9200   0.76000194   -6.7492716   0.66561323  0.006029105 0.0097671249           10    5.5386695    858.59007     1.006301 
    9300   0.78782152   -6.7081229   0.68788933 0.0061638826 0.0097930013           11    5.4671165    863.18766    1.0009411 
    9400   0.77109524   -6.6646186   0.70246279 0.0062275067 0.0098241614           24    5.7827026    861.87995    1.0024598 
    9500   0.77074123   -6.6518244   0.71026436 0.0062303888 0.0098535629           11    5.8579984    861.91843     1.002415 
    9600   0.75388063   -6.7038927   0.71023018 0.0061651922 0.0098647981           23    5.7763742    858.44055    1.0064762 
    9700   0.77265605   -6.6840462    0.7162561 0.0061534026 0.0098608904           26    5.9362599    857.61332     1.007447 
    9800   0.79677116   -6.6800446   0.72595954  0.006173125 0.0098505153           26    5.5966811    862.68699     1.001522 
    9900   0.77655864   -6.6654875    0.7293037 0.0061389197 0.0098369357           24    5.5757948    864.35318   0.99959139 
   10000   0.78148076   -6.7460238   0.73862001 0.0061551664 0.0098136269           23    5.2480076    863.39011    1.0007064 
   10100   0.75003988   -6.6808952   0.75492315 0.0062287385 0.0097928822           21    5.8230562    860.20676    1.0044097 
   10200   0.79770839   -6.6646666   0.75768979 0.0061902757 0.0097776091           20    5.8364329     861.5205     1.002878 
   10300   0.76333192   -6.7214181   0.77516625 0.0062715713 0.0097560043           36    5.8705407    856.30189    1.0089899 
   10400    0.7492377   -6.7098692   0.78391714  0.006281387 0.0097393551           48    5.4123407    862.86295    1.0013178 
   10500   0.75608414   -6.7439951   0.80305745 0.0063734715 0.0097287866           24    4.7800719    869.28815   0.99391669 
   10600   0.73657235   -6.7390651   0.79912949 0.0062824643 0.0097056293           13    5.4211255    860.64824    1.0038945 
   10700   0.77632148   -6.7320549   0.83636104 0.0065137149 0.0096975383           38    5.6162272    858.99014    1.0058323 
   10800   0.77331637   -6.7706728   0.85411848 0.0065904201 0.0097084091           19    5.5498198    857.31324    1.0077997 
   10900   0.75802622   -6.7565773    0.8571101 0.0065528292 0.0097150849           14    5.8762273     853.6112    1.0121704 
   11000   0.79086268    -6.709336   0.85742019 0.0064956072 0.0097134877           20    6.2608093    852.14572    1.0139111 
   11100   0.77269512   -6.6908388   0.85497127 0.0064187029 0.0097007929           20    6.0228009    856.33187    1.0089546 
   11200   0.82030386    -6.711485   0.87665667 0.0065227428 0.0096844803           10    5.5068987    863.09192    1.0010521 
   11300   0.76431532   -6.6827358   0.88710293 0.0065420567 0.0096736512           11    6.0038467    857.41007    1.0076859 
   11400   0.78588746   -6.7128098   0.90789753 0.0066366775 0.0096694887           10    5.3662378    864.34758   0.99959787 
   11500   0.75830953   -6.6816018   0.91692826 0.0066444074 0.0096633017            5    5.7600542    861.37052    1.0030527 
   11600   0.72644775   -6.6702098   0.91801882 0.0065949625  0.009656894            3    5.9144906    859.32808    1.0054367 
   11700    0.7777936    -6.672068   0.91890755 0.0065449253 0.0096404893            7    5.6098955    864.19916   0.99976954 
   11800   0.74452184   -6.6637713   0.92544677 0.0065356408 0.0096183143            8    5.7030785    863.06501    1.0010833 
   11900   0.77237205   -6.6895318   0.93606028 0.0065550437 0.0095954804            8    5.9287561    857.73873    1.0072997 
   12000   0.74805485   -6.7094782   0.94317313 0.0065498132 0.0095736991            9    5.5346336    861.62294    1.0027588 
   12100   0.77115144   -6.6882965   0.93374826 0.0064307728  0.009542875           11     5.566635    862.88211    1.0012955 
   12200   0.73958707   -6.6986645   0.93174355 0.0063643682 0.0094986509           17    5.5316408    862.02278    1.0022937 
   12300   0.77569844    -6.643823   0.93851542 0.0063585053 0.0094547059           12    6.0672603    859.57561    1.0051472 
   12400    0.7832892    -6.739558   0.94926599 0.0063794755 0.0094118898            7    5.4960819    859.91148    1.0047546 
   12500   0.77342902   -6.7202888   0.95739717 0.0063826475 0.0093689243            4    5.2741878    864.76008   0.99912105 
   12600   0.74586205   -6.6568121   0.98726531 0.0065295322 0.0093340417            5    5.6085954    864.00818   0.99999053 
   12700   0.78951576   -6.7070439   0.99091446 0.0065020632 0.0093068571            4    5.5744921    862.08461    1.0022218 
   12800   0.76895708   -6.6880212    1.0001028 0.0065110859  0.009276945            3    6.0615029    856.37822       1.0089 
   12900   0.76859921   -6.6385246    1.0013848 0.0064688935 0.0092477159            6    6.0884513    859.30215    1.0054671 
   13000   0.79405521   -6.7072195    1.0215617 0.0065484723 0.0092183222            5    5.3903077    864.21067   0.99975623 
   13100   0.74350122    -6.706268    1.0354374 0.0065867517 0.0091969813            9    5.6208486    860.38587    1.0042006 
   13200   0.80277027   -6.6673254    1.0348468 0.0065331237 0.0091742318            7    6.1184988    857.22078    1.0079084 
   13300    0.7759907   -6.6043284    1.0372697 0.0064991836 0.0091473509            6    6.1179675    861.18454    1.0032693 
   13400   0.78267455   -6.7107448    1.0372314 0.0064504438 0.0091160449            6    5.6531395    860.17355    1.0044485 
   13500   0.77215633    -6.695473     1.049218 0.0064766538 0.0090806784            6    5.7242159    860.24867    1.0043608 
   13600   0.78249112   -6.6356277    1.0726196 0.0065724239 0.0090548871           16    5.9027137    862.33302    1.0019331 
   13700   0.78677107   -6.6796325    1.0748992 0.0065383159 0.0090295063           11    5.7981274    860.56049    1.0039968 
   13800   0.77367299   -6.7019442    1.0777961 0.0065084301 0.0090020477           17    5.5542852    861.91966    1.0024136 
   13900    0.7744666   -6.7177755    1.0904068 0.0065372109 0.0089743449            7    5.3016633    864.96332   0.99888629 
   14000   0.78850147   -6.6794628    1.0935478 0.0065092127 0.0089450948            7    5.3285436    866.69606   0.99688927 
   14100    0.7683293   -6.6934097    1.0987314 0.0064936839 0.0089155825            7    5.5272957    862.66783    1.0015442 
   14200    0.7909191   -6.6779268     1.098362 0.0064457862 0.0088843246            7    5.9968335    857.75038    1.0072861 
   14300   0.77426801   -6.6894778    1.1093252  0.006464599 0.0088540934            6    5.9014188    858.38697     1.006539 
   14400   0.73257729   -6.6904579    1.1255897 0.0065138288 0.0088259514            7    5.7501038    860.09113    1.0045447 
   14500   0.78160561   -6.6947609    1.1249436 0.0064651931 0.0087972313           19    5.4873981    863.36347    1.0007373 
   14600   0.79352577   -6.7045622    1.1207263 0.0063968393 0.0087650908            6    5.7213485     859.8146    1.0048678 
   14700   0.77413144   -6.6788942    1.1230497 0.0063664948 0.0087306164           14    5.8484525    859.27023    1.0055044 
   14800   0.75943776   -6.6798593     1.140878 0.0064238622 0.0086967802           22    5.7622707    860.44143    1.0041357 
   14900   0.74936895    -6.756147    1.1362345 0.0063547787 0.0086626062            9    5.5292219    857.98494    1.0070107 
   15000   0.76960163   -6.6962325     1.152828 0.0064045999 0.0086262469            7    5.6696614    860.37003    1.0042191 
   15100   0.77460769   -6.7264325    1.1831933 0.0065297643 0.0086007465            8    5.3997267    862.84755    1.0013356 
   15200   0.74814798   -6.7411112    1.1866031 0.0065054993 0.0085783653            8     5.574577    858.45509    1.0064592 
   15300   0.80112616   -6.7448386    1.2009633 0.0065411941 0.0085557773            5    5.6411722    858.30212    1.0066385 
   15400   0.80728524   -6.7213368    1.2131509 0.0065646694 0.0085374002            6    5.9517188    856.46961    1.0087924 
   15500   0.81859237   -6.6946203      1.21198 0.0065160211 0.0085187654            6    6.2982086    853.52698    1.0122703 
   15600   0.76486122   -6.7116404    1.2194538 0.0065141763 0.0084975793           16    6.0993847    853.38972    1.0124331 
   15700   0.77831205   -6.6735345    1.2210823 0.0064813286 0.0084758905           11    5.9066618    859.63297    1.0050801 
   15800   0.80010154   -6.7156916    1.2263133  0.006467897 0.0084519437           26    5.5046508    862.59007    1.0016345 
   15900   0.76035449   -6.7140857    1.2323365 0.0064587863 0.0084262753           19    5.6998658    859.98672    1.0046667 
   16000   0.76594018   -6.6763417    1.2521865 0.0065218044 0.0084041748           12     5.835852    860.09604     1.004539 
   16100   0.79790009   -6.6382135    1.2698359 0.0065726496 0.0083869473            5    5.9906121    861.08567    1.0033845 
   16200   0.77524437   -6.7058275    1.2863296 0.0066169215 0.0083725056            5    5.6493086    861.01187    1.0034705 
   16300   0.78658519   -6.7583899    1.2929088 0.0066099631 0.0083581124            9    5.4637081     859.0752    1.0057327 
   16400   0.72409007   -6.7339351    1.3242825 0.0067290776 0.0083472034            7    5.5902971    858.54395     1.006355 
   16500   0.75674737   -6.6849604     1.320377 0.0066685707 0.0083384024           10    5.9515644      857.193     1.007941 
   16600    0.7410432   -6.6997256    1.3258046 0.0066556453 0.0083277151            6    5.5448322    861.45729    1.0029516 
   16700   0.75907691   -6.8074911    1.3198114  0.006585885 0.0083127404            8    5.2287693    858.49619     1.006411 
   16800   0.74859174   -6.7332949    1.3298268 0.0065963631 0.0082951506           11    5.3441433    861.80386    1.0025483 
   16900   0.77876211   -6.7274022    1.3282052 0.0065493353 0.0082770892            6    5.4208297    861.55892    1.0028333 
   17000   0.79547528   -6.7151864    1.3278334 0.0065089872 0.0082582268            8    5.8088728    857.95839    1.0070418 
   17100   0.74761163   -6.7039034    1.3310818 0.0064867531 0.0082391565            3    5.9536008    855.95089    1.0094037 
   17200   0.77777983   -6.7286462    1.3410343  0.006497259 0.0082184163           16    5.7927583    857.36634    1.0077372 
   17300   0.79164288   -6.6800868    1.3647471 0.0065739263 0.0082002951           26    5.5836398    863.27501    1.0008398 
   17400   0.77908257   -6.7434671    1.3701133 0.0065618452 0.0081836309           14     5.294205    862.80209    1.0013884 
   17500   0.79482032   -6.7195071    1.3670148 0.0065095942 0.0081657996            4    5.6940101    859.23782    1.0055423 
   17600   0.74265081   -6.6844233    1.3764056 0.0065170716 0.0081475426            4    6.0132143    857.05949    1.0080981 
   17700   0.75909768   -6.8037196    1.3877983   0.00653389 0.0081302754            5    5.3090822    858.33738    1.0065972 
   17800   0.75459797   -6.7584404    1.4001237 0.0065548863 0.0081122757            3    4.9588449    865.80112   0.99791971 
   17900   0.73922511   -6.6833974    1.4019809 0.0065269129 0.0080953108            5    5.4424594    864.28242   0.99967324 
   18000    0.8021363   -6.6986131     1.397254 0.0064687685 0.0080759429            6    5.8326594    858.80909    1.0060443 
   18100   0.76314895   -6.6997344     1.402699 0.0064580984 0.0080570892            4    6.0807247    855.11727    1.0103877 
   18200   0.79878318   -6.7151394    1.4152983 0.0064803033 0.0080385804           14    5.8361928    857.72073    1.0073209 
   18300   0.72889817   -6.6987104    1.4226713 0.0064784664 0.0080210157            5    5.7798203    858.67802    1.0061979 
   18400    0.7598204   -6.6787573    1.4223426 0.0064417688 0.0080024174            6    5.8979622    858.92298    1.0059109 
   18500   0.78505288   -6.7327605    1.4254076 0.0064207547 0.0079816489            5    5.3609783    862.74148    1.0014587 
   18600   0.79354659   -6.7260147    1.4110319 0.0063218273 0.0079588643            3    5.4545358    861.39139    1.0030284 
   18700   0.76144522   -6.7327879    1.4257652 0.0063536773 0.0079341504            6    5.6885019    857.72768    1.0073127 
   18800   0.78790658   -6.6545536    1.4463943 0.0064113223 0.0079142062            4    6.4129855    853.39086    1.0124318 
   18900    0.7966765   -6.6530272    1.4617878 0.0064452721 0.0078971904            4    5.8442702    861.76428    1.0025943 
   19000   0.79172528   -6.7001197    1.4639343 0.0064207643 0.0078799308            6    5.7068047    860.33163    1.0042639 
   19100    0.7433317   -6.7047536    1.4752105 0.0064363459  0.007861732            6    5.8829355    857.02713    1.0081361 
   19200   0.79278681   -6.6995359    1.4792578 0.0064203895 0.0078435892            6    5.5810509    862.54081    1.0016917 
   19300   0.77459391    -6.681819    1.4896353 0.0064319311 0.0078266835            9    6.0931461    856.70846    1.0085111 
   19400   0.79055049   -6.7055444    1.4976078 0.0064330232 0.0078111578            5    5.7545358    859.41302    1.0053373 
   19500   0.76814672   -6.6696909    1.4957841 0.0063922397 0.0077940736            3    6.0148525    857.82638    1.0071968 
   19600   0.76272145   -6.6678659    1.4835784 0.0063077313 0.0077743169            3    6.3255709    853.94039    1.0117802 
   19700   0.77170551    -6.671894    1.4797892 0.0062596834 0.0077505207            8    5.7221201     862.1505    1.0021452 
   19800   0.76044741   -6.6862862    1.4958763 0.0062957755 0.0077278057            3    5.1504487    868.53326   0.99478056 
   19900   0.74871687   -6.7290866    1.4986001 0.0062755445  0.007704195            4    5.2022939    864.42868   0.99950409 
   20000   0.78179054   -6.6849457    1.4941892 0.0062257882 0.0076813613            3    5.6740378     861.7446    1.0026172 
   20100   0.73377411   -6.6798694    1.4889165  0.006172954 0.0076559175            2    5.8872984    858.51298    1.0063913 
   20200   0.75696363   -6.6731058    1.4996768 0.0061867855 0.0076308356            4    5.9439692    858.12955     1.006841 
   20300   0.78006742   -6.6986546    1.5305014 0.0062828465 0.0076089446            4     5.385775    864.37274   0.99956877 
   20400   0.77024305   -6.7001874    1.5362523 0.0062755402 0.0075894569            2    5.3383704     864.8382    0.9990308 
   20500   0.76039144   -6.7386078    1.5282971 0.0062125896 0.0075678095            1    5.7919541    855.89609    1.0094683 
   20600   0.78225831   -6.7724866    1.5366652 0.0062162831 0.0075462906            6    5.5967289    856.16666    1.0091493 
   20700    0.7494286   -6.7035959    1.5460819 0.0062241621 0.0075255364            2    6.1691863    853.80055    1.0119459 
   20800   0.78847605   -6.6966769    1.5521658 0.0062186127 0.0075063798            4    5.9988216    856.91472    1.0082684 
   20900   0.76214437   -6.7336293    1.5731063 0.0062723536   0.00748765            4      5.39413    862.34312    1.0019214 
   21000    0.7898421   -6.6834501     1.593913 0.0063250516 0.0074704453            7    5.5025004     864.5037   0.99941735 
   21100   0.78333837    -6.702025    1.5993249 0.0063164488 0.0074563008            5    5.6160903    861.07558    1.0033962 
   21200    0.7629857   -6.7056618    1.5983082  0.006282658 0.0074407522           12    5.8414296    857.17681    1.0079601 
   21300   0.78546322   -6.6778061    1.6012336 0.0062646069 0.0074250284            4    5.8836371    859.74396    1.0049504 
   21400   0.76020483    -6.684295    1.6125648  0.006279458  0.007409246            3    5.5835733    862.21292    1.0020727 
   21500   0.75160265   -6.7378275    1.6132992 0.0062530977 0.0073926402            2     5.637854    858.06113    1.0069213 
   21600   0.75820275   -6.6916675    1.6170831 0.0062387465 0.0073766133            3       5.9556    856.90938    1.0082746 
   21700   0.76779477   -6.7220518    1.6387168  0.006293075 0.0073610473            3    5.2468516    864.29833   0.99965483 
   21800    0.7827017   -6.7838744    1.6540704 0.0063228991  0.007347078            2    4.9326545    864.66205   0.99923432 
   21900   0.76878222   -6.7457012    1.6326831 0.0062126447 0.0073316285            6    5.5057318    859.47762    1.0052618 
   22000   0.79575463   -6.6700902    1.6611072 0.0062920724 0.0073161126            7    5.6247671    864.54213   0.99937293 
   22100   0.78327994   -6.6816289    1.6551697  0.006241213 0.0073026023            5    5.8856283    858.89292    1.0059461 
   22200   0.75410988   -6.7211286    1.6625083 0.0062406467 0.0072876854           14    5.7298619    858.36737     1.006562 
   22300   0.78258161   -6.6749075    1.6833539 0.0062905599  0.007274237            3     5.868096    860.44937    1.0041265 
   22400   0.80293673   -6.7028977    1.6987877 0.0063198945 0.0072628595           15    5.7296237    859.86335    1.0048108 
   22500   0.77830919   -6.7481318    1.7079831 0.0063258632 0.0072522779           15    5.4358771    860.62021    1.0039272 
   22600   0.78766878   -6.7272705    1.7220949 0.0063499072 0.0072421638           15    5.4429674     861.8898    1.0024483 
   22700   0.80877398   -6.6682061    1.7301243 0.0063514107 0.0072333807            5    5.8624452    861.17832    1.0032765 
   22800   0.75788003   -6.6511173    1.7070967 0.0062393883  0.007221956           11    6.2189376    856.53063    1.0087205 
   22900   0.79976686   -6.6930617    1.7216617 0.0062651442 0.0072099377            8    5.9640035    857.08328    1.0080701 
   23000   0.82471416   -6.6727124    1.7171404 0.0062215231  0.007198029           14    5.8486063    861.27535    1.0031635 
   23100   0.77537741    -6.706893    1.7146023 0.0061854338  0.007183912           18     5.728297    859.80122    1.0048834 
   23200   0.79942415   -6.6855283    1.7145439 0.0061585627 0.0071687013           12    5.7559029    860.85083    1.0036582 
   23300   0.79113134   -6.6297996    1.7422089  0.006231076 0.0071556926            8    6.1864976    859.08094     1.005726 
   23400   0.76449216   -6.6941677    1.7674725 0.0062944178 0.0071449169            8      5.60832    862.64853    1.0015666 
   23500   0.74288236   -6.6778088    1.7932989 0.0063592157 0.0071360617            6    5.2221978    868.08894   0.99528972 
   23600   0.78080562   -6.6604717    1.7880086 0.0063135896 0.0071268412           13    5.3960006    867.56285   0.99589326 
   23700   0.77673326   -6.6851574    1.7609374 0.0061917629 0.0071159211            5    5.7448683    860.62217    1.0039249 
   23800    0.7636544   -6.6954009    1.7678975 0.0061901172 0.0071031842           13    6.1624098    854.11727    1.0115707 
   23900    0.7977011   -6.7259764    1.7922587 0.0062491585  0.007092335           15    5.8965665    856.56628    1.0086785 
   24000   0.78328817   -6.6700341    1.8013625 0.0062547308 0.0070820723           16    5.8172513    861.10483    1.0033622 
   24100    0.8151433   -6.6268521    1.8219742 0.0063000489 0.0070731357            3    5.7884023    864.50415   0.99941684 
   24200   0.77622732   -6.6670938    1.8344464  0.006316964 0.0070652187            3    5.4547353    867.09715   0.99642814 
   24300   0.79883935   -6.7165543    1.8342415 0.0062902657 0.0070570768            8     5.349163    864.44424   0.99948609 
   24400   0.75465149   -6.6701387     1.840639 0.0062863354 0.0070486534           11    5.7946332    860.94941    1.0035433 
   24500   0.80757124   -6.6963292    1.8236874 0.0062030183 0.0070386172           36    6.0035156    856.89727    1.0082889 
   24600   0.80712881   -6.7276244     1.845587 0.0062519883 0.0070284017           41    5.8286984    857.35648    1.0077488 
   24700   0.80468423   -6.6852726    1.8459228 0.0062278096 0.0070192804           15    5.8277854     859.6914    1.0050118 
   24800   0.82793793   -6.6482866    1.8553629 0.0062344183 0.0070097231           12    5.7952271    863.26427    1.0008523 
   24900   0.77551587   -6.6745036    1.8428314  0.006167441 0.0069987376           16    5.6635941    862.57956    1.0016467 
   25000   0.75942952   -6.6806623    1.8514529 0.0061715096 0.0069867712            9    5.5197516     864.1546    0.9998211 
   25100   0.78825484   -6.6546275    1.8722947 0.0062161178 0.0069758813            7    5.4640136     866.7979   0.99677214 
   25200    0.7499409   -6.6980322    1.8863839  0.006238042 0.0069666621           17     5.583911    861.49937    1.0029026 
   25300   0.80353169   -6.6890515    1.8969215 0.0062480945 0.0069583836           15    5.8283798    859.82746    1.0048528 
   25400   0.76109145   -6.6607214    1.9047097 0.0062490475 0.0069503103           15    5.9999054    859.10289    1.0057003 
   25500   0.74074408   -6.7158371    1.9389398 0.0063364043 0.0069438152           14    5.4595839    862.11503    1.0021865 
   25600   0.78663729   -6.7295208    1.9692622 0.0064103585 0.0069394326            8    4.9616759    868.28092   0.99506966 
   25700   0.73728411   -6.6966845    1.9690585 0.0063847551 0.0069355391           13    5.1815266    867.14832   0.99636934 
   25800   0.77468653   -6.6615967    1.9749064 0.0063788964  0.006931907            5    5.5633605    864.82453    0.9990466 
   25900   0.77389336   -6.6700099    1.9516414 0.0062794125 0.0069258006            7    5.8387118    860.78925      1.00373 
   26000   0.76038305   -6.6519868    1.9343374 0.0061997992 0.0069174412           14    5.9056372    860.72831    1.0038011 
   26100   0.80793273   -6.6654864    1.9340094 0.0061749981 0.0069082125           20    5.6108395    864.33526   0.99961212 
   26200   0.76518662   -6.6732992    1.9496957 0.0062013222 0.0068991288           30    6.0104335    857.92816    1.0070773 
   26300   0.74494088   -6.6644997    1.9613789  0.006214762 0.0068904301           19    5.6784288    862.73629    1.0014648 
   26400   0.76290942   -6.6539577    1.9704253 0.0062197766 0.0068821696           14    5.5113759      865.458   0.99831534 
   26500   0.77573459   -6.6572018    1.9826782  0.006234837  0.006874719           11    5.5717646    865.27521   0.99852624 
   26600   0.78280534   -6.6540214    2.0026481   0.00627396 0.0068674295           21    5.4063917    867.51547   0.99594766 
   26700   0.75892836   -6.6939515    2.0038949 0.0062543534 0.0068607084           15      5.63559    861.41238    1.0030039 
   26800   0.78576618   -6.6515625    2.0102717 0.0062508448 0.0068539018            7    5.8410431     862.0111    1.0023073 
   26900   0.77926654   -6.6453696    2.0125812 0.0062347621  0.006848013            3    6.1708933    858.21754    1.0067378 
   27000   0.81457802   -6.7037247    2.0166091 0.0062241022  0.006841487            5    5.6883253    860.13591    1.0044924 
   27100   0.75880132   -6.7233408    2.0144351 0.0061944498 0.0068341523            5    5.6700794     858.6043    1.0062843 
   27200   0.78239385   -6.7455173     2.022444 0.0061962133 0.0068256812            6     5.353577    861.21175    1.0032376 
   27300   0.77735819     -6.66834    2.0320353 0.0062027937 0.0068180324           11    5.5999637    863.71569    1.0003292 
   27400   0.75274345   -6.7219508    2.0490203 0.0062318135 0.0068108389            3    5.3670129    863.17495    1.0009558 
   27500   0.77880271   -6.7057127    2.0545538 0.0062259204 0.0068041545            4    5.7285776    859.14135    1.0056552 
   27600   0.84089913   -6.7047577    2.0686744 0.0062459973 0.0067978268            9    5.5421405    863.32023    1.0007874 
   27700   0.77429554   -6.6799755    2.0890356  0.006284704 0.0067926234            4    5.7705834    860.42113    1.0041594 
   27800   0.74220341   -6.6828662    2.0925529 0.0062726406 0.0067880959            5    5.7571342    859.67456    1.0050315 
   27900    0.7952434   -6.6586318    2.1120914 0.0063085166 0.0067832818            4    5.4199718    867.19844   0.99631176 
   28000   0.78790041   -6.7292151    2.1206719 0.0063115233 0.0067793538            8    5.1981231    865.17458   0.99864237 
   28100   0.77475145   -6.7111029    2.1236336 0.0062978458 0.0067751353           17    5.6393961    860.24695    1.0043628 
   28200   0.75694992   -6.7191705     2.117862 0.0062584574 0.0067708769           11    6.0716348    853.79189    1.0119562 
   28300   0.73220472   -6.7654391    2.1142397 0.0062256762 0.0067651871           12    5.8416796    852.91426    1.0129975 
   28400   0.77735546   -6.7643387    2.1300475 0.0062501393 0.0067597025            9      5.51477    858.60466    1.0062838 
   28500   0.80469061   -6.7413452    2.1330384 0.0062369542  0.006754726           31    5.5801149    859.37983    1.0053762 
   28600   0.74656984    -6.685062    2.1377914 0.0062289959 0.0067491699           18    6.0874517    855.21053    1.0102776 
   28700   0.78072642   -6.6987837    2.1423561 0.0062205462 0.0067438831           12    5.8860098    858.03821    1.0069482 
   28800   0.80521746   -6.7185657    2.1634753 0.0062600558 0.0067391017            5    5.3820169    863.97312    1.0000311 
   28900   0.74854208    -6.716328    2.1680286 0.0062515241 0.0067338956            4    5.2893276    864.54497   0.99936965 
   29000   0.76890362   -6.6501184    2.1593747 0.0062050996 0.0067282305            6    6.0518388    859.29532     1.005475 
   29100   0.79758904   -6.6617669     2.167281 0.0062064175 0.0067226906            7    6.0840367     858.4377    1.0064796 
   29200   0.79227096   -6.7239155    2.1875893 0.0062431202 0.0067179359           14    5.8024507    857.29778    1.0078178 
   29300   0.74419656   -6.6754138    2.2041775 0.0062689916  0.006714118           12     5.910789     858.8552    1.0059903 
   29400   0.76531901   -6.6535223     2.230753 0.0063229959 0.0067110833           17    5.4990471    866.73367   0.99684601 
   29500   0.75473578   -6.6753204    2.2182545 0.0062662555  0.006707277           11    5.4209435    865.64258   0.99810247 
   29600   0.72725533    -6.693249    2.2219568 0.0062555089 0.0067026844            8    5.2898294    865.89878   0.99780715 
   29700    0.7737008   -6.6834622    2.2654646 0.0063565225 0.0066993259           14    5.1454402    869.45293   0.99372832 
   29800   0.73074343   -6.6555605    2.2648744 0.0063335412 0.0066969693            5    5.6604219    863.70184    1.0003452 
   29900   0.73762161   -6.7066574    2.2919095 0.0063877076 0.0066956088            3    5.3298465    864.50181   0.99941953 
   30000   0.77465299   -6.7021152    2.2817843 0.0063382896 0.0066932944           12    5.2660578    865.79091   0.99793147 
   30100   0.79447816     -6.67592    2.2830537 0.0063207465 0.0066910161           15    5.4890123    864.33618   0.99961106 
   30200   0.75454179   -6.7144618    2.2920166 0.0063245491 0.0066885179           11    5.3318001    864.05745   0.99993351 
   30300   0.77277626   -6.6921879    2.3161304 0.0063699956 0.0066865346           14    5.5906065    862.21046    1.0020755 
   30400   0.75306902    -6.687167     2.336629 0.0064052328 0.0066856362            7    5.7211705     860.8311    1.0036812 
   30500   0.72805835   -6.7192504    2.3682238 0.0064705566 0.0066863564            6    5.6078416    859.67581      1.00503 
   30600   0.74397523   -6.6838918    2.3937022 0.0065187967 0.0066881598           11    5.5011265    863.86492    1.0001564 
   30700   0.73732017   -6.7180093    2.4220783 0.0065745881 0.0066906585            6    4.8317252    870.50069   0.99253224 
   30800   0.75196942   -6.6800085    2.4253939 0.0065622129 0.0066939473            7     5.070395    870.12579   0.99295988 
   30900   0.72335604   -6.6889096    2.4359016 0.0065693138   0.00669725            7    5.3182651     865.2885    0.9985109 
   31000    0.7724303   -6.6785421    2.4179435 0.0064998481 0.0067000142           13    6.0237908    857.25894    1.0078635 
   31100   0.74664255   -6.7363308    2.4304851 0.0065125538 0.0067020141            8    5.8057806     856.0316    1.0093085 
   31200   0.77913136   -6.7033535    2.4254678 0.0064782791 0.0067039888            4    5.8661011    857.61019    1.0074507 
   31300    0.7710966   -6.6934214    2.4251444 0.0064567209 0.0067048547            4    5.8304259    858.78323    1.0060746 
   31400   0.79569685   -6.7544667    2.4524621 0.0065086574 0.0067065495           12    5.3582114    861.27386    1.0031652 
   31500   0.79421087   -6.6669484    2.4499238 0.0064812798 0.0067080051           10    5.7254669    862.83463    1.0013506 
   31600   0.77278845   -6.6950836    2.4474589 0.0064542692 0.0067088284            7    5.5282565    863.16003    1.0009731 
   31700   0.76367412   -6.6687246    2.4443641 0.0064257729  0.006709224           13    6.1911418     855.8266    1.0095503 
   31800   0.74498171   -6.6852179    2.4468966 0.0064122026 0.0067094152            9    6.2543705     853.5496    1.0122435 
   31900   0.81476933   -6.7246424    2.4549428  0.006413121 0.0067091552           12    5.5850868    860.84053    1.0036702 
   32000    0.7847505   -6.7054605    2.4669666  0.006424392 0.0067090818            6    6.0066748    856.05151    1.0092851 
   32100   0.80854782   -6.6566145    2.4708493  0.006414458 0.0067094051            7    6.4105903    853.66276    1.0121093 
   32200   0.80923031   -6.7018903    2.4971796   0.00646268 0.0067100366           11    5.7664443    860.14102    1.0044865 
   32300   0.74719276   -6.6807641    2.4893966 0.0064225916 0.0067102003            9    5.8754399    859.16505    1.0056275 
   32400    0.7622345   -6.7938302    2.5124657 0.0064621029 0.0067104097            9    5.0935487    861.36489    1.0030592 
   32500   0.70320558   -6.7085497    2.5139236 0.0064459578 0.0067101636            3    5.6826548    858.81911    1.0060326 
   32600   0.79094194   -6.7282986    2.5048448 0.0064029773 0.0067099176            9    5.7289105    857.88958    1.0071226 
   32700    0.8038958   -6.7014959    2.5215431 0.0064259507 0.0067096208            3    5.6041074      862.159    1.0021353 
   32800   0.77241917   -6.6505564    2.5141622 0.0063876071 0.0067090384            6    5.8298469    861.87452    1.0024661 
   32900   0.78697341   -6.6943143    2.5352284  0.006421551 0.0067082381            9    5.7593213    860.09281    1.0045428 
   33000    0.7684051   -6.7276994    2.5403063 0.0064149149 0.0067080361            6    5.6013439    859.44406     1.005301 
   33100   0.74791631   -6.7178734    2.5748402 0.0064824777 0.0067081258            9    5.6578152    859.45738    1.0052855 
   33200   0.77388339   -6.6657324    2.6061842  0.006541627 0.0067098131            8    5.7554043    861.57073    1.0028196 
   33300   0.79291143   -6.6732035    2.6068038 0.0065235329 0.0067119375            4    5.8481017    860.16225    1.0044617 
   33400   0.77526345   -6.7312843    2.5914632 0.0064657264 0.0067129028            5    5.8392222     855.4513    1.0099932 
   33500   0.74286614   -6.6867376    2.6129551 0.0064998882 0.0067137998            7    5.8619165    858.60681    1.0062813 
   33600   0.73839281   -6.6747158    2.6438898 0.0065572662 0.0067157784            5    5.2556691    868.08234   0.99529729 
   33700   0.77366078   -6.7117459    2.6401111 0.0065284645 0.0067174712            6    5.2331308    866.04994   0.99763301 
   33800   0.72925551   -6.6832619    2.6361483 0.0064993793 0.0067182201            4    5.3608444    865.30204   0.99849527 
   33900   0.75720138   -6.6986858    2.6506243 0.0065157921 0.0067188515            3    5.3111701    865.15477   0.99866525 
   34000   0.75357739   -6.7062208     2.640755 0.0064724387 0.0067197803            6    5.6682108    860.23511    1.0043766 
   34100   0.77988049   -6.6760642    2.6347782 0.0064388518 0.0067196231            5    6.0015144    857.51694    1.0075603 
   34200   0.76685962   -6.7025885    2.6719868 0.0065106889 0.0067199212            2    5.3727573    864.82131   0.99905032 
   34300   0.75376846   -6.6821429    2.6773085 0.0065046367 0.0067208979            3    5.5869758    862.19095    1.0020982 
   34400   0.80551527   -6.7648533    2.6715215 0.0064717089 0.0067211749            2    5.4425768    859.58586    1.0051352 
   34500   0.77216115   -6.7144668    2.6624323 0.0064309957 0.0067213195            5     5.868892     857.1441    1.0079985 
   34600   0.78765983   -6.7059076    2.6967209 0.0064949924 0.0067213881            5    5.8734709    857.76289    1.0072714 
   34700     0.783934   -6.7003526    2.7278729 0.0065510875 0.0067231359           17    5.7596442    859.08087     1.005726 
   34800   0.76253698   -6.6390192    2.7214927 0.0065169844 0.0067245623            7    6.0358643    859.73646    1.0049591 
   34900   0.78319774   -6.7176633    2.7279062 0.0065136251  0.006725536           10    5.5828889    859.80809    1.0048754 
   35000   0.76728258   -6.7465532    2.7133738 0.0064604136 0.0067259346            8    5.7125368    856.66307    1.0085645 
   35100   0.76831896   -6.6655235    2.7324013 0.0064871824 0.0067260717           10    5.9140917    859.75662    1.0049356 
   35200   0.77933168   -6.6780284    2.7574298  0.006528006 0.0067267574           15    5.6811492    862.07321    1.0022351 
   35300    0.7738497   -6.7695466    2.7586783 0.0065124605 0.0067278608           45    5.5132104    857.98436    1.0070114 
   35400   0.76762221   -6.7059911    2.7770807 0.0065373838 0.0067289779           39    6.1924685    853.24646    1.0126031 
   35500   0.78304856   -6.6691637    2.8165942 0.0066117234 0.0067317289           46    6.2406736    854.78615    1.0107791 
   35600   0.79995577   -6.6653983    2.8395671 0.0066469266 0.0067355132           14    5.8678892    860.82968    1.0036829 
   35700   0.80557048   -6.7282437    2.8709582 0.0067015831 0.0067397066           24      5.19343    865.84981   0.99786359 
   35800   0.75729371   -6.7151426    2.8653998  0.006669925 0.0067436207           41    5.7235226    858.67045    1.0062068 
   35900   0.76556164   -6.7231952    2.8567722 0.0066313188 0.0067471609           20    5.7242584    858.84984    1.0059966 
   36000   0.78649923   -6.6795996    2.8543962 0.0066073986 0.0067498728           36    5.4176866    865.74241   0.99798738 
   36100   0.75488856   -6.6747887     2.858513 0.0065985988 0.0067520255           30    5.6862998    862.24141    1.0020396 
   36200   0.75968127   -6.6831222    2.8443054 0.0065476643 0.0067536698           13    5.7986406    859.79314    1.0048929 
   36300   0.77925371   -6.7292682    2.8593834 0.0065642409 0.0067547816           11    5.5632111    860.32715    1.0042691 
   36400   0.77646321   -6.6797885    2.8948883 0.0066274915  0.006757051           24    5.6608118    862.15055    1.0021452 
   36500   0.76615143   -6.6887008    2.9158514  0.006657195 0.0067600947           28    5.7340381    860.97749    1.0035106 
   36600   0.76228811   -6.7086811     2.927438 0.0066653871 0.0067633595           29    5.5713489    861.12513    1.0033385 
   36700   0.79337867   -6.6642812    2.9336924 0.0066614267 0.0067667468           18    5.7516963    862.25453    1.0020243 
   36800   0.77667023   -6.7303916    2.9369631 0.0066507315 0.0067695075           31    5.2964932    863.56587    1.0005027 
   36900   0.75750817   -6.6947047    2.9285104 0.0066136187 0.0067720025           48    5.8041315    859.29136    1.0054797 
   37000   0.80255488   -6.7003446     2.922653 0.0065825516 0.0067735221           18    5.7114572    860.12737    1.0045024 
   37100    0.7875282    -6.673721    2.9291222   0.00657934 0.0067752268           19    5.7761881    861.02944      1.00345 
   37200   0.70940336   -6.6753686    2.9362235 0.0065775616 0.0067760377           28    5.7836899     860.5046     1.004062 
   37300   0.78675218   -6.7543468    2.9450327 0.0065796083  0.006777068           25    5.1578531     864.4779   0.99944718 
   37400   0.75022325   -6.7305011    2.9497645  0.006572559 0.0067779469           20    5.5052244    860.71581    1.0038156 
   37500    0.7829216   -6.7487167    2.9626964 0.0065837697 0.0067790781           21    5.4836846    858.88454    1.0059559 
   37600   0.81803105   -6.7402881    2.9757367  0.006595161 0.0067806258           14    5.4093276    861.59406    1.0027924 
   37700   0.77459923   -6.7498559    2.9540016 0.0065296231 0.0067816862           15    5.7118803    856.70452    1.0085158 
   37800    0.7622321   -6.6970331    2.9707082 0.0065491803 0.0067819834           14    5.7310336    860.12873    1.0045008 
   37900   0.76827251   -6.7011066    2.9956581 0.0065867592 0.0067831105            9    5.6187846    861.90155    1.0024347 
   38000   0.72643369   -6.6544285    2.9776508  0.006529936 0.0067835879           23    5.8382771    860.93239    1.0035631 
   38100   0.77183085   -6.6626986    3.0059311 0.0065746525 0.0067840052           21    5.6882908    863.38934    1.0007073 
   38200   0.75247056   -6.6891354    3.0194945 0.0065870298 0.0067847929           14    5.2534346    867.06673   0.99646309 
   38300   0.73892553   -6.7156291    3.0027335 0.0065333626 0.0067850996           20    5.5506176    860.35708    1.0042342 
   38400   0.78414274    -6.694042    2.9946092 0.0064987179 0.0067846312           17    5.6139215    862.12205    1.0021783 
   38500   0.73659339    -6.619939    2.9938582 0.0064802124 0.0067840282           16    6.0766315     860.3339    1.0042613 
   38600   0.77227381   -6.6739786    3.0271194 0.0065352317 0.0067837489            7    6.0070719    857.64259    1.0074127 
   38700   0.78024525    -6.772692    3.0535339 0.0065752238 0.0067843322           13    5.7022857    855.17947    1.0103142 
   38800   0.78727157   -6.7243613    3.0723093 0.0065986023 0.0067855626           17    5.8857927    856.40078    1.0088734 
   38900   0.75739841   -6.6881828    3.0855225 0.0066099453 0.0067869582           12    5.6113608     863.0453    1.0011062 
   39000   0.80305897   -6.6792729    3.1220095 0.0066709605 0.0067890474            7    5.2942638    867.67907   0.99575988 
   39100   0.76736868   -6.6456782    3.0992917 0.0066054809 0.0067907251            5     5.672967    864.49846   0.99942342 
   39200   0.77066231   -6.7013987    3.1089406 0.0066091423 0.0067918666           19    5.9168528    857.08671     1.008066 
   39300   0.77532648   -6.6923183    3.1222337 0.0066205124 0.0067936302            8    6.0281102    855.64424    1.0097655 
   39400   0.76948867   -6.7456554    3.1472573 0.0066566355 0.0067956056           12    5.2306869    863.21902    1.0009047 
   39500   0.78181789    -6.675581    3.1559135 0.0066580453 0.0067975348           18    5.5123449    865.32222   0.99847199 
   39600   0.76447791   -6.6732951    3.1415169 0.0066109362 0.0067990719           32    5.8373564    860.25166    1.0043573 
   39700   0.78544514    -6.738787    3.1292519 0.0065685387 0.0068001539            8    5.6887508    857.97903    1.0070176 
   39800   0.74484102   -6.7434077    3.1176058 0.0065276503 0.0068002772            9    5.6735601    857.08988    1.0080623 
   39900   0.73365619   -6.7231171    3.1070108  0.006489162 0.0067993755           16     5.759204    857.40923    1.0076868 
   40000    0.7663789   -6.6757233     3.122331 0.0065048561 0.0067983906           35    5.9751297    858.22789    1.0067256 
   40100   0.80619583   -6.6917666    3.1292868 0.0065030896 0.0067980462           17    5.9292821    857.71683    1.0073255 
   40200   0.78618028   -6.7472481    3.1185259 0.0064646058 0.0067972427           21     5.941793    853.79596    1.0119514 
   40300   0.75271341   -6.7496412    3.1446414  0.006502567 0.0067960899            9    5.5647491     858.3077     1.006632 
   40400   0.78817097   -6.7265829    3.1770901 0.0065534035 0.0067958063            8    5.6570034    858.96826    1.0058579 
   40500   0.79161758   -6.6610252    3.1961395 0.0065764187 0.0067965808           12    5.9697882    859.36828    1.0053897 
   40600   0.78973682   -6.7370551    3.1950758 0.0065580374 0.0067968599           16     5.447763    861.58929     1.002798 
   40700    0.7922971   -6.7489516    3.2044798 0.0065611789 0.0067969937           31    5.4029619    860.55695     1.004001 
   40800   0.76252934   -6.6952315    3.2170105 0.0065706913 0.0067971891           11    5.8428347    858.26464    1.0066825 
   40900   0.75251309   -6.6905728    3.2359541 0.0065932234 0.0067977382           12    5.6571197    860.96199    1.0035286 
   41000   0.79808042   -6.7188162    3.2302948 0.0065656397 0.0067981978           13    5.7845347     857.7715    1.0072613 
   41100   0.75216928   -6.6845554    3.2184945  0.006525739 0.0067983444           12    6.2370496    853.86701    1.0118672 
   41200    0.7416821   -6.7452257    3.2227368 0.0065184806 0.0067980334           10    5.6829164    856.82444    1.0083746 
   41300   0.80227315   -6.7408371      3.22722 0.0065117432 0.0067972557           12    5.3763157    862.01449    1.0023033 
   41400   0.74314703   -6.6673404    3.2291517 0.0064999027 0.0067966707           31    6.2069419      855.482     1.009957 
   41500   0.81163921   -6.6873001    3.2449432 0.0065159501 0.0067958142           11    5.7655667    861.07116    1.0034014 
   41600   0.74967117     -6.68355    3.2971166 0.0066048009 0.0067960946           10    5.4868642    863.86024    1.0001618 
   41700   0.73992054   -6.7174322    3.3031403 0.0066009996  0.006796738           17    5.5596648    860.39237     1.004193 
   41800   0.76706161   -6.7373838    3.2908031 0.0065606123 0.0067967103           16    5.6386558    858.40796    1.0065144 
   41900   0.80052862   -6.6975246    3.2934851 0.0065502885 0.0067968677           14    5.6507289     861.3589    1.0030662 
   42000   0.77883382   -6.6835331    3.2926098 0.0065329559 0.0067968813           13    5.9643983    857.83852    1.0071826 
   42100   0.78732385   -6.7221813    3.2934422 0.0065190857 0.0067962595           15    5.7557657    858.00782    1.0069838 
   42200   0.75697149   -6.7302344    3.2947196 0.0065061603 0.0067956912           12    5.7995072    856.57568    1.0086674 
   42300   0.74495518   -6.7320245    3.2997574  0.006500704 0.0067949376           11     5.932174    854.48103    1.0111401 
   42400   0.77587866    -6.729443    3.3104854 0.0065064571 0.0067941632           14    5.6031007     859.1816    1.0056081 
   42500   0.77559153   -6.6859422    3.3149802 0.0064999612 0.0067932952           10    5.7820216     859.7769    1.0049119 
   42600   0.77301732   -6.7042231    3.3226982 0.0064998008 0.0067926252            8    5.7227429    859.10504    1.0056977 
   42700    0.7745495    -6.777509     3.327088 0.0064931458 0.0067914214            6    5.4482455    858.10665    1.0068679 
   42800   0.74056292    -6.712539    3.3351564 0.0064936844 0.0067904449           12    5.6431877    859.89918     1.004769 
   42900   0.75774879   -6.6759985    3.3420563 0.0064919507 0.0067892653           12    5.9259613    858.40404     1.006519 
   43000     0.800099   -6.6917165     3.378207 0.0065469128 0.0067887435           10    5.8318694    859.53238    1.0051977 
   43100   0.75273826   -6.7262076    3.3827229 0.0065404541 0.0067886317           10    5.5325224    859.77787    1.0049107 
   43200   0.77131779   -6.7415993    3.4040661 0.0065664855   0.00678836           10    5.2388547    863.09971    1.0010431 
   43300   0.75686811   -6.7424882    3.4238693 0.0065894328 0.0067884904           13    5.2885862    862.45798    1.0017879 
   43400   0.76132099   -6.7415417    3.4130037 0.0065533864  0.006788584           13    5.5936223    858.85257    1.0059934 
   43500   0.78156295   -6.6526818    3.4335673  0.006577715  0.006788819           18    6.0117381    859.64237    1.0050691 
   43600   0.78960493   -6.7389855     3.458417 0.0066101242 0.0067896657            6    5.5014367    860.58872    1.0039639 
   43700    0.7722747   -6.7288209     3.470074 0.0066172273 0.0067903676            7     5.793388    857.07107    1.0080844 
   43800   0.81013735   -6.6888283    3.4726458 0.0066070124 0.0067913203           10     5.861499    859.44287    1.0053024 
   43900   0.77005223   -6.6892627    3.4873993 0.0066199682 0.0067922603           10    5.8402557    858.57277    1.0063212 
   44000   0.77781762   -6.7638575    3.5048649 0.0066380016 0.0067931973           11    5.3678273    860.32855    1.0042675 
   44100   0.77365227   -6.6917807    3.5036908 0.0066207309 0.0067943102           11    5.8181438    859.06336    1.0057465 
   44200   0.81532365   -6.7163741    3.5067492 0.0066115181 0.0067952876           10    5.4748222     862.3232    1.0019445 
   44300    0.7232499     -6.67663     3.497392 0.0065789916 0.0067955429            5    5.9656773    857.45501     1.007633 
   44400   0.79889377   -6.7795714    3.5156653 0.0065984709 0.0067958437           11    5.0520267    862.98092    1.0011809 
   44500   0.73784181   -6.7742617    3.5157373 0.0065837776 0.0067958317           22    5.4724888    857.11943    1.0080276 
   44600   0.74755421   -6.6859381    3.5362433 0.0066073304 0.0067963576            8    5.9805239     857.0296    1.0081332 
   44700   0.78091592   -6.7090848    3.5316911 0.0065840623 0.0067967594           24     5.717142    859.27436    1.0054996 
   44800   0.72669456   -6.6943633    3.5384307 0.0065819022 0.0067970748           16    5.9008458    858.01359    1.0069771 
   44900   0.77719269   -6.7245578    3.5513031 0.0065911342 0.0067973126           27    5.6637908    858.94042    1.0058905 
   45000   0.78165698    -6.742593    3.5316031 0.0065400057 0.0067970902           18     5.574796    858.77448    1.0060849 
   45100   0.74647977    -6.731515    3.5410356 0.0065429334  0.006796691           35     5.717647     857.0934    1.0080582 
   45200   0.74543408   -6.7397025    3.5408132 0.0065280479 0.0067960151           35    5.7062713    856.87338     1.008317 
   45300    0.7503429   -6.8249481    3.5253808 0.0064852479 0.0067948165           67    5.1674716    857.88172    1.0071318 
   45400   0.77847118   -6.7339538    3.5500479 0.0065162406 0.0067934265           51    5.6638778    858.25892    1.0066892 
   45500   0.80501704   -6.6864939    3.5553103 0.0065115573 0.0067928812           35    5.9907649     857.7923    1.0072368 
   45600   0.78149395   -6.7295867    3.5502921 0.0064881069 0.0067920347           31    5.9644326    854.82078    1.0107382 
   45700   0.76500891   -6.7451554    3.5804664  0.006528932 0.0067912807           19    5.5542732    858.71841    1.0061505 
   45800   0.78479016   -6.7159417    3.5745516 0.0065039148 0.0067904528           24    5.7648198    858.53981    1.0063599 
   45900   0.77817489   -6.6926967    3.5637313 0.0064701003 0.0067894287           18    5.9397688     857.6905    1.0073564 
   46000   0.81167007   -6.6769207    3.5786282 0.0064830221 0.0067879695           20    5.8151028    860.54011    1.0040206 
   46100   0.76919702   -6.6960838    3.5911948 0.0064916753 0.0067868123           29    5.8586257    857.72802    1.0073123 
   46200   0.77284421   -6.7249103    3.5905099 0.0064763887  0.006785679           27    5.6520009    859.79062    1.0048958 
   46300   0.77040187   -6.6768632    3.5755911 0.0064355491 0.0067837025           22     5.940706    858.68685    1.0061875 
   46400     0.754624   -6.6924405    3.6006866 0.0064667502 0.0067820081           23    6.0694446    854.94879    1.0105868 
   46500   0.76686443   -6.7293847     3.639645 0.0065226612 0.0067811677           16    5.8640793    855.65376    1.0097542 
   46600   0.79043619   -6.7240496    3.6441075 0.0065166442 0.0067803989           25     5.921644    855.49609    1.0099403 
   46700   0.75370129   -6.7477407    3.6883393  0.006581619 0.0067798812           28    5.3145231    862.34069    1.0019242 
   46800   0.77746321   -6.7120652    3.7295544 0.0066409444 0.0067805614           21    5.1917367    866.89019   0.99666602 
   46900    0.7472861   -6.6980383    3.7444974 0.0066533358 0.0067813865           12     5.677645    860.48104    1.0040895 
   47000   0.78827292    -6.737076    3.7598431 0.0066663885 0.0067827736           30     5.664048    857.95117    1.0070503 
   47100   0.77215341   -6.6889058    3.7733001  0.006676044 0.0067845688           18    6.1230323    855.22955    1.0102551 
   47200   0.80294034   -6.6617283    3.7730517 0.0066614612 0.0067862657           19    5.9405208    860.48462    1.0040853 
   47300   0.77228717   -6.6585967    3.7830927 0.0066650681 0.0067877971            6    5.8135477    861.70926    1.0026584 
   47400   0.78154966   -6.7126617    3.7786965 0.0066432778 0.0067889701           12    5.4539575    862.31715    1.0019515 
   47500   0.77778105    -6.716503     3.777312 0.0066268631 0.0067897884            4    5.5832792    861.04549    1.0034313 
   47600   0.76506036   -6.6678426    3.7738814 0.0066069352 0.0067904043            8    6.1832642     855.7916    1.0095916 
   47700   0.77871513   -6.7418521    3.7728053 0.0065912041 0.0067909791            9    5.9164117    854.06814    1.0116289 
   47800   0.77617413   -6.7683622    3.8129111 0.0066473345 0.0067916862            8    5.6255741    856.69875    1.0085225 
   47900   0.77083384   -6.7270483    3.8129834 0.0066335827 0.0067924617            5    5.4941341    861.41948    1.0029957 
   48000    0.7680259   -6.6691307    3.8297022 0.0066487884 0.0067932591            6    5.7911678    861.72447    1.0026407 
   48100   0.80272033    -6.679949    3.8318239 0.0066386414 0.0067942343            4    5.6710871     862.3138    1.0019554 
   48200   0.75396052   -6.7186944    3.8396949 0.0066384765 0.0067948708           10    5.4977496    862.45468    1.0017918 
   48300   0.79543011   -6.7617005    3.8722445  0.006680891 0.0067957574            5    4.9858984    865.64669   0.99809774 
   48400   0.79553054   -6.6761462    3.8918108  0.006700776 0.0067972547            2    5.6018466    863.89726    1.0001189 
   48500   0.78946638   -6.6871505    3.8887893 0.0066817685  0.006798757            4    5.8617322    858.74157    1.0061234 
   48600   0.76616053   -6.6907291    3.9039354 0.0066939907 0.0068003937            5    5.9203907     857.5854    1.0074798 
   48700   0.79221423   -6.7454178     3.950191 0.0067593959 0.0068023909            5    5.4199993    860.81031    1.0037055 
   48800   0.77739166   -6.6979226    3.9550727 0.0067538809 0.0068047989           12    5.7608768    859.20407    1.0055818 
   48900   0.75848106   -6.6668606    3.9933155 0.0068052412 0.0068075031            4    5.7129303    862.11217    1.0021898 
   49000   0.75424731   -6.7076495     4.006846 0.0068143639 0.0068103825           12    5.2733091    865.43848   0.99833786 
   49100   0.78800754   -6.7006363     3.997192 0.0067841005 0.0068129756            2    5.2781742      866.236   0.99741872 
   49200   0.75072348    -6.668801    3.9685936 0.0067218726  0.006814735            3    5.8361509    860.69247    1.0038429 
   49300   0.76920403   -6.7240916    3.9760923 0.0067209132 0.0068163585            3    5.5513136    860.52773     1.004035 
   49400    0.7537701    -6.697075    3.9857942 0.0067236744 0.0068183236            3    5.9947843    856.11785    1.0092068 
   49500   0.78056932   -6.7306106    4.0130716 0.0067560127 0.0068202387            3    5.3264264    863.41618    1.0006762 
   49600   0.77110656   -6.6759964    3.9927014 0.0067081676 0.0068219201            4    6.0055406    857.79315    1.0072358 
   49700   0.78312872   -6.7076071    4.0082121 0.0067206775 0.0068234144           14     5.701545    859.93852     1.004723 
   49800   0.78303936   -6.7301935    4.0408887 0.0067618619  0.006825444            6    5.7370424    857.50306    1.0075766 
   49900   0.80479952    -6.784023    4.0338054 0.0067364819 0.0068274166           11    5.5640219    856.78236    1.0084241 
   50000   0.78325792   -6.6652359    4.0286471 0.0067144118 0.0068292598            7    6.0333962    857.97951    1.0070171 
   50100   0.78274043   -6.6597117    4.0258631  0.006696379  0.006830768            2    5.9779451    859.48797    1.0052497 
   50200    0.7601002   -6.7330191    4.0173919 0.0066689772 0.0068317101            5    5.4870614    860.80318    1.0037138 
   50300   0.76532455   -6.7229444    4.0179025 0.0066565648 0.0068320059            9    5.5605743    860.69488    1.0038401 
   50400    0.7859308   -6.7538192    4.0478437 0.0066928632  0.006832882            8    5.3694331    861.07009    1.0034026 
   50500   0.74366382   -6.6562191    4.0653748 0.0067085391 0.0068338786           10    6.0628617    857.93327    1.0070713 
   50600   0.78496183   -6.7354396    4.0575283 0.0066823588 0.0068351169            8    5.9185544    854.29766    1.0113571 
   50700   0.78265019   -6.7696478     4.082068 0.0067095134 0.0068364103            5    5.5194561    857.57531    1.0074917 
   50800   0.78438269   -6.6988516    4.0791125 0.0066914575 0.0068373885            7    5.5900786    862.16495    1.0021284 
   50900   0.75506161   -6.7086265     4.075531 0.0066724476 0.0068381346            8    5.6538852    859.63837    1.0050738 
   51000   0.75485976   -6.7137651     4.094974  0.006691134 0.0068388105           11    5.4831384    861.69754     1.002672 
   51100   0.74938302   -6.6549896    4.0795569 0.0066528977 0.0068394366           11    5.7644394    862.33317    1.0019329 
   51200   0.75189422   -6.7011006    4.0934287 0.0066624816 0.0068398884           15    5.4111721    863.83887    1.0001865 
   51300   0.76161082   -6.7340657      4.06528 0.0066037686 0.0068395338           14    5.5421388    859.85053    1.0048258 
   51400   0.75768392   -6.6906457    4.0851051 0.0066230627 0.0068395389            4    6.1428887    854.85045    1.0107031 
   51500   0.79884194   -6.7028289    4.1184231 0.0066641149 0.0068399721            4    5.9315102    857.44919    1.0076399 
   51600   0.76704346   -6.7661616    4.1356833  0.006679075 0.0068405659            7    5.6574118    856.11072    1.0092153 
   51700   0.78898939   -6.7489611    4.1693037 0.0067203476 0.0068416215            1    5.4367453     860.3328    1.0042625 
   51800   0.78434177   -6.7132641    4.1750625 0.0067166384 0.0068427916            7    5.6537801    859.74331    1.0049511 
   51900   0.75915568   -6.6300619    4.1955796 0.0067366403 0.0068442621            3    6.0771876    859.87723    1.0047946 
   52000   0.77744967   -6.6749613    4.2080187 0.0067436197 0.0068457473            4     5.626694    863.13734    1.0009994 
   52100   0.73137399   -6.6967801    4.2564106 0.0068080784 0.0068473691            4    5.3608746    865.28411   0.99851597 
   52200   0.77618873   -6.7046591    4.2425524 0.0067729125   0.00684918            4    5.2719915    865.21487   0.99859587 
   52300   0.77286222   -6.7322034    4.2228183 0.0067285186 0.0068503436            1    5.2303371    864.13521   0.99984353 
   52400    0.7552296   -6.7291945    4.2062312 0.0066892989 0.0068511141            3    5.8387734    855.84266    1.0095314 
   52500   0.78859178   -6.7245419    4.2042484 0.0066734101 0.0068517634            3    5.8341787    855.96007    1.0093929 
   52600   0.78777647   -6.6546891    4.1959401 0.0066475603 0.0068522791            2    5.9933858    859.53824    1.0051909 
   52700   0.75749876   -6.6606416    4.1980306  0.006638252 0.0068523587            9       5.8382     861.3279    1.0031023 
   52800    0.7814752   -6.7529742    4.1935118 0.0066185477 0.0068521254            5    5.2094371    863.56608    1.0005025 
   52900    0.7404348    -6.681953    4.2032255 0.0066213382 0.0068517352            7    5.7889015    860.08911    1.0045471 
   53000   0.77258277   -6.6847699    4.2464123 0.0066767488 0.0068517275           14     5.557091    862.92568     1.001245 
   53100   0.78829051   -6.6909932    4.2862426 0.0067266833 0.0068525565            8    5.2050676    867.43828   0.99603628 
   53200   0.73812609   -6.6806296     4.249695 0.0066567903 0.0068529287            7    5.5103073    863.02232    1.0011329 
   53300   0.76084494   -6.6768821    4.2616261 0.0066629551 0.0068530648           10    5.8003466    860.09433     1.004541 
   53400   0.77147508   -6.6675674    4.2934376 0.0067001211 0.0068534515            5    5.5762386    864.30072   0.99965207 
   53500   0.75621991   -6.6746235    4.2857023 0.0066755487 0.0068541105            6    5.7704629    860.97457     1.003514 
   53600   0.78119976   -6.7543493    4.2746701 0.0066459423 0.0068542334           12    5.6160344    857.03401     1.008128 
   53700   0.75354186   -6.7832026     4.282464  0.006645661 0.0068543607            9    5.5820552    855.31542    1.0101537 
   53800   0.76086957   -6.7209847    4.2864498 0.0066394822 0.0068543752            9    6.0017529    854.13296    1.0115521 
   53900   0.76783868   -6.6747188    4.3342854 0.0067011214 0.0068547666           10    5.7152487    861.46545    1.0029421 
   54000   0.78483806    -6.699185    4.3505261 0.0067137748  0.006855542           16    5.4970066    862.31914    1.0019492 
   54100   0.75571979   -6.7325839    4.3377812 0.0066817331 0.0068560344           27    5.5681687    859.29776    1.0054722 
   54200   0.73826654   -6.6961038    4.3660286 0.0067128361 0.0068566061           14    5.5228326    862.28106    1.0019935 
   54300   0.77308454   -6.7103815     4.377116 0.0067174892 0.0068572057           14    5.1478743    867.14315   0.99637529 
   54400   0.75622921   -6.7385477    4.3449094 0.0066558048 0.0068572055           26    5.0798122    865.52661   0.99823621 
   54500   0.78174216   -6.7367791    4.3434482  0.006641358 0.0068568757           16    5.5561373    859.73688    1.0049586 
   54600   0.76267704   -6.7507274    4.3407474 0.0066250723 0.0068567389           32    5.8590218    854.73295     1.010842 
   54700   0.79928199   -6.7127528    4.3638463 0.0066481509 0.0068566515           42    5.8597066    857.86732    1.0071487 
   54800   0.79485248   -6.7405023    4.3766706 0.0066555209 0.0068567926           14    5.8455053    855.58552    1.0098348 
   54900   0.77984399   -6.7541339     4.371194 0.0066350849 0.0068567412           14    5.9712969    852.91934    1.0129915 
   55000   0.77063387   -6.7385989    4.3973653 0.0066626746 0.0068568242           17    5.7148746    857.03494    1.0081269 
   55100   0.76973629   -6.7102434    4.4110558 0.0066712882 0.0068569207            8    5.7439265    858.97706    1.0058476 
   55200   0.72111596    -6.738711     4.435751  0.006696484 0.0068574403            5    5.5946094    858.51542    1.0063885 
[...]
   89400   0.74282278   -7.2604106    5.4072703  0.005040334 0.0056635636          838    5.1434538    826.70726      1.04511 
   89500   0.71748945   -7.2862063     5.394252  0.005022581  0.005656882          832    5.0875624    825.81706    1.0462366 
   89600   0.76031023   -7.2372461    5.3520038  0.004977682 0.0056500256          840    5.9336159    819.80534    1.0539087 
   89700   0.78189993   -7.2059444     5.358449 0.0049781206 0.0056431934          837    6.0302845    820.70225     1.052757 
   89800   0.74279869   -7.2237843    5.3643336 0.0049780378 0.0056363921          837    5.7056315    823.12986    1.0496521 
   89900   0.78166426   -7.2974185    5.3469691 0.0049564044 0.0056294965          845    5.5634512    820.28199    1.0532963 
   90000   0.75763392   -7.1961221    5.3848038 0.0049859294 0.0056227486          831    5.8384871    823.19572    1.0495681 
   90100   0.77469528   -7.2046629    5.3694214 0.0049661685 0.0056159781          829    5.6863833    824.58214    1.0478034 
   90200   0.77832535   -7.2860828    5.3816273 0.0049719394 0.0056091998          836    5.3853341    823.28602     1.049453 
   90300   0.74552586   -7.2810252    5.3884584 0.0049727375 0.0056025143          844    5.5194071    821.87808    1.0512508 
   90400    0.7620146   -7.1923186    5.4152855 0.0049919667 0.0055958877          840    5.7274178    825.39221    1.0467751 
   90500   0.78444788   -7.2424752    5.4133168 0.0049846379 0.0055894619          841    5.6880775    822.79182    1.0500834 
   90600   0.74086612   -7.2779413    5.3984004 0.0049654161 0.0055829249          840    5.8770763    818.00022    1.0562344 
   90700   0.74317406   -7.2707702    5.4028205 0.0049640026 0.0055763418          849    5.4108458    823.47606    1.0492108 
   90800    0.7440045   -7.2238323    5.3896161 0.0049464171   0.00556969          833     5.376924    827.22047    1.0444616 
   90900   0.76856539   -7.2026009    5.3825472  0.004934495 0.0055629369          828     5.809003    823.50895    1.0491689 
   91000   0.74658246   -7.2502269    5.3482943 0.0048977054 0.0055562124          838    5.8548797    820.02743    1.0536233 
   91100    0.7719809   -7.2354799    5.3971974 0.0049370631 0.0055494955          841    5.3231764    826.94531    1.0448091 
   91200   0.80002245   -7.2195211    5.3759828 0.0049122649  0.005542865          838    5.7590809    823.10159    1.0496882 
   91300   0.76168601   -7.2161038    5.3641418 0.0048960768 0.0055361996          839    6.0913014    819.06384    1.0548628 
   91400   0.77483079   -7.1985608    5.3710174 0.0048969888 0.0055294881          827    6.1830435    819.79045    1.0539279 
   91500   0.78285124   -7.1665288     5.404516 0.0049221457 0.0055229355          830    5.8902215    824.91672    1.0473785 
   91600   0.78210342   -7.2154425    5.3829099  0.004897116 0.0055164275          842    5.7637036    823.13349    1.0496475 
   91700   0.77294058   -7.2292782    5.3707536 0.0048807284 0.0055097487          845    5.7123633     823.1427    1.0496357 
   91800   0.73024132    -7.249058    5.3775883 0.0048816161 0.0055030129          834    5.6325494    822.03058    1.0510558 
   91900   0.72418791   -7.2181611    5.3601724 0.0048605117  0.005496239          845    6.0566163    818.98153    1.0549688 
   92000   0.78004415   -7.2119425    5.3932298 0.0048851719  0.005489687          830    5.7881533    822.89088     1.049957 
   92100   0.77575832   -7.2019795    5.3961014 0.0048824659 0.0054830796          823      6.03926    821.11219    1.0522314 
   92200   0.73263042   -7.2449986    5.4134268 0.0048928297 0.0054765906          833    5.6596659    821.93022    1.0511841 
   92300   0.78436425   -7.2721245     5.432574 0.0049048158 0.0054701408          828    4.8502038    830.69966    1.0400871 
   92400   0.73846375   -7.2062297    5.4074401 0.0048768399 0.0054635731          840    5.5319607    826.21378    1.0457342 
   92500   0.77472461   -7.1905054     5.405884 0.0048701658 0.0054570732          829    5.8431793    824.27317    1.0481962 
   92600   0.78944545   -7.1974943    5.4100633 0.0048686675 0.0054506261          828    5.7707775    824.34455    1.0481054 
   92700   0.76524817   -7.2078983    5.3729521  0.004830054 0.0054441103          832     5.807474    823.06689    1.0497324 
   92800   0.77516342   -7.2399441    5.3743465 0.0048261014 0.0054373771          833    5.5579906    824.24326    1.0482342 
   92900   0.76093417   -7.2628641    5.3954304 0.0048398192 0.0054307668          837    5.5804881    822.39326    1.0505923 
   93000   0.76017197   -7.1808512    5.3897191 0.0048294974 0.0054242146          827    5.8393535    824.57717    1.0478098 
   93100   0.75781946   -7.2022398    5.4104457 0.0048428623 0.0054176746          839    5.4419783    827.88297    1.0436258 
   93200   0.73811095   -7.2539085    5.3921145 0.0048212755  0.005411098          820    5.2205003    826.71126    1.0451049 
   93300   0.75023686   -7.1895998    5.4010269 0.0048240683 0.0054044997          835    5.5468324    827.46337     1.044155 
   93400   0.77667758   -7.2020643    5.3528592 0.0047759272 0.0053978073          837    5.6782199    825.19067    1.0470307 
   93500   0.76394665   -7.2211581    5.3840265 0.0047985976 0.0053910863          848    5.7666086    822.79904    1.0500741 
   93600   0.73737873   -7.1915548    5.4015313 0.0048090556 0.0053845518          837    5.9810142    821.80158    1.0513487 
   93700   0.77546751   -7.1843334    5.4196282 0.0048200179 0.0053781167          815    5.3498965    830.06379    1.0408839 
   93800   0.76721841   -7.2230872    5.3949945 0.0047929944 0.0053716079          832    5.5082644    825.49439    1.0466455 
   93900   0.79051711   -7.2383991    5.4280612 0.0048172357 0.0053651637          829    5.5516683    824.53138    1.0478679 
   94000   0.80655865   -7.1658862    5.4336756 0.0048170883 0.0053589151          832    5.8703828    825.55761    1.0465654 
   94100   0.74932191   -7.1551565    5.3921546 0.0047751989 0.0053525398          833    6.0771495    822.49156    1.0504667 
   94200   0.75015364   -7.2160466    5.3644946 0.0047456604 0.0053459419          828    5.9889915    820.75255    1.0526924 
   94300    0.7907901   -7.2426436    5.3715399 0.0047468539 0.0053392987          830    5.5125145    824.55836    1.0478336 
   94400   0.76429667   -7.2001261    5.3694931 0.0047400186  0.005332598          841    5.6613865     825.3104    1.0468788 
   94500   0.73231222   -7.2284682    5.3808623 0.0047450284 0.0053258732          824    5.2401975    828.22184    1.0431988 
   94600   0.74691195   -7.2160365    5.3745328 0.0047344369 0.0053191972          827    5.5149569    826.14587    1.0458202 
   94700   0.81503898   -7.2290303    5.4026753 0.0047542021 0.0053127077          838    5.6560975      824.482    1.0479307 
   94800    0.7902901   -7.2512861    5.3739397 0.0047239272 0.0053061775          844    5.5699249    823.38882     1.049322 
   94900   0.71089209   -7.2018558    5.3606025 0.0047072378 0.0052995919          836    6.2136233     817.9509    1.0562981 
   95000   0.73686644   -7.2698112    5.3803972 0.0047196467 0.0052929562          839    5.4484705     823.1638    1.0496088 
   95100   0.77775072   -7.2488412     5.406067 0.0047371775 0.0052864748          833    5.7550714    821.54136    1.0516817 
   95200   0.76972616   -7.1699266    5.3951906 0.0047226809 0.0052800923          825    6.1010484    822.29161    1.0507221 
   95300      0.77776   -7.2215481     5.415019 0.0047350638 0.0052736906          832    5.3986945     827.3605    1.0442848 
   95400   0.77260459   -7.2501945    5.4022101 0.0047189116 0.0052672755          839     5.151624    828.37341    1.0430079 
   95500   0.79015145   -7.1709393    5.4275064  0.004736044 0.0052608855          827    5.7730595    826.15634    1.0458069 
   95600    0.7675918   -7.1974663    5.4162498 0.0047212777 0.0052546963          818     5.874351    823.10597    1.0496826 
   95700   0.78846843   -7.2848296    5.3867102 0.0046906219  0.005248291          836    5.4417324    822.85231    1.0500062 
   95800   0.75021028     -7.23294    5.3917752 0.0046901315 0.0052417937          840    5.9239989    820.29233     1.053283 
   95900   0.76862282   -7.1882697    5.4151032  0.004705512 0.0052354842          838    6.0267632    822.25945    1.0507632 
   96000   0.80265458   -7.2298546    5.4317641  0.004715073 0.0052292232          841    5.4528116    826.28789    1.0456404 
   96100   0.76544508   -7.2534901    5.4287313 0.0047075366 0.0052230146          831    5.6210738    822.56475    1.0503732 
   96200   0.71117028   -7.2277787    5.4233563 0.0046979871 0.0052167024          827    5.3837908    826.43809    1.0454504 
   96300   0.77056977   -7.2118847    5.4300788 0.0046989259 0.0052104346          828    5.4490162    827.29966    1.0443616 
   96400   0.76319537   -7.2658832    5.3678452 0.0046402534 0.0052039826          825    5.4481516    823.83231    1.0487571 
   96500    0.7457341   -7.2145597    5.3704631 0.0046377056 0.0051974407          834    6.0540178    819.63118    1.0541327 
   96600   0.77571407   -7.1889613    5.3941411 0.0046533308 0.0051910216          829    6.1520899    820.32495    1.0532412 
   96700   0.78701941    -7.198685    5.3740506 0.0046312052 0.0051846086          836    6.0449955    820.91781    1.0524805 
   96800   0.72504489   -7.2167508     5.401535 0.0046500818 0.0051782066          833    5.6949866    823.50063    1.0491795 
   96900   0.74714696   -7.2511663    5.4049832 0.0046482484 0.0051717588          839    5.1647572    827.51983    1.0440837 
   97000   0.75200528   -7.1662045    5.4019983  0.004640892 0.0051654107          822     5.562807    828.52027     1.042823 
   97100   0.75182152   -7.2023261    5.3858191 0.0046222271 0.0051589893          829    5.9724305    821.02627    1.0523415 
   97200   0.77542459   -7.2129851    5.3676954 0.0046019336 0.0051525554          837    6.2149697    818.08944    1.0561192 
   97300   0.82672917   -7.2040156    5.4349906 0.0046548394 0.0051463181          836    5.5657011    826.84772    1.0449324 
   97400   0.80310155   -7.2451713    5.4388751 0.0046533839 0.0051402282          834     5.317331    827.11839    1.0445905 
   97500   0.75460803   -7.2296963    5.4102988  0.004624187 0.0051340395          836     5.747111    822.64898    1.0502657 
   97600   0.76426858   -7.1855717    5.3933524 0.0046049798  0.005127761          832    6.1741992    820.51096    1.0530024 
   97700   0.81744301   -7.2141804    5.3894495 0.0045969374 0.0051213801          832    5.3732938    828.45613    1.0429037 
   97800   0.75797508   -7.1913598    5.3855554  0.004588919 0.0051150792          824    5.8355716    824.15424    1.0483474 
   97900    0.7962589   -7.2658253     5.380095 0.0045795837  0.005108687          832    5.4964638     823.5037    1.0491756 
   98000   0.76212805   -7.1734296    5.3997297 0.0045916068 0.0051023249          834    5.9740869    823.18645      1.04958 
   98100   0.77728329   -7.2539176    5.4186283 0.0046029802 0.0050960463          837    5.1876864    827.71149     1.043842 
   98200   0.76739464   -7.2341988    5.4126163  0.004593191 0.0050898585          836    5.6748364    823.33146    1.0493951 
   98300   0.80193649   -7.2502591    5.3737258 0.0045555492 0.0050835076          843    5.7280618     821.7324    1.0514372 
   98400   0.75862495   -7.2313964    5.3812788  0.004557316 0.0050770918          830    5.9907997    819.76186    1.0539646 
   98500   0.79859147    -7.206272    5.4283811  0.004592539 0.0050708763          822    5.4838089    827.47878    1.0441355 
   98600   0.76409522    -7.213993    5.3763735 0.0045439262 0.0050646053          842    5.7544837    823.40528     1.049301 
   98700   0.76185392   -7.2483816    5.3955374 0.0045555027 0.0050582704          838    5.4784159    824.44654    1.0479758 
   98800   0.77843416   -7.2074404    5.3789676  0.004536916 0.0050518886          841    5.6889373    825.37551    1.0467963 
   98900   0.73367608   -7.2356394    5.3873495 0.0045393912 0.0050455764          837    5.7184975    822.49966    1.0504564 
   99000   0.76396007   -7.2453718    5.3687516 0.0045191512 0.0050391992          844     5.646972    822.39727    1.0505871 
   99100   0.79234913   -7.2468418    5.3818995  0.004525647 0.0050327703          838    5.2860608    827.30392    1.0443562 
   99200   0.78979247   -7.1533849    5.3942413 0.0045314526 0.0050264849          832    5.7411208    827.62262    1.0439541 
   99300   0.78496742   -7.2252508    5.3975296 0.0045296488 0.0050202716          834    6.3620789    815.95108     1.058887 
   99400   0.76112912   -7.2359992    5.3949952 0.0045229671 0.0050140935          828    5.8762062    820.40393    1.0531398 
   99500   0.77054261   -7.2129193    5.4361106 0.0045528564 0.0050079305          831    5.0725899    831.75989    1.0387613 
   99600   0.75347772   -7.2034204     5.426415 0.0045401732 0.0050018076          828    5.3600463    828.66024    1.0426469 
   99700   0.75883917   -7.2570854    5.3798671 0.0044967127  0.004995572          844    5.5615479    822.57346    1.0503621 
   99800   0.76069513   -7.2922319    5.3797291 0.0044920918 0.0049891875          836      5.35864    823.16846    1.0496029 
   99900   0.75838279   -7.2017433    5.3768996 0.0044852349 0.0049828614          829    5.7240617    824.52862    1.0478714 
  100000   0.77583277    -7.229723    5.4006675 0.0045005562 0.0049765763          839    5.5592086    824.97554    1.0473038 
  100100   0.74014505   -7.2400631    5.4071327 0.0045014424 0.0049704957          840    5.8494499    820.19168    1.0534123 
  100200   0.75508247   -7.2638977    5.3858265 0.0044792302 0.0049643073          847    5.8777096    818.64024    1.0554087 
  100300   0.79751181   -7.2499612    5.4014273 0.0044877262 0.0049581404          841    5.4317882    825.49372    1.0466464 
  100400   0.75414775   -7.2044587    5.3965879 0.0044792396 0.0049519962          835    5.8967584    822.54846     1.050394 
  100500   0.75665203   -7.2453203    5.3939709 0.0044726127 0.0049458317          839    5.9082015      819.371    1.0544674 
  100600   0.77971222   -7.2692953    5.3804921 0.0044570014 0.0049396115          843    5.6059883    821.79996    1.0513507 
  100700   0.75346604   -7.1787149    5.4165692 0.0044824307 0.0049335232          842    5.4997214    828.73112    1.0425577 
  100800   0.77275409   -7.2696745    5.4035233 0.0044671985 0.0049274119          827    5.1535393     827.2132    1.0444708 
  100900   0.74898393   -7.2396676    5.3951314 0.0044558403 0.0049211915          846    5.5686842    824.10668     1.048408 
  101000   0.76778586   -7.2318851    5.3975009 0.0044533835 0.0049150045          839    5.6095571    823.90564    1.0486638 
  101100   0.73934813   -7.1676916     5.397456 0.0044489416 0.0049089029          844    6.2133933    821.17754    1.0521476 
  101200   0.76147995   -7.2424512    5.4505041  0.004488228 0.0049029245          838    5.3562859    826.21426    1.0457336 
  101300   0.77249459   -7.2086533    5.4581651 0.0044900996 0.0048970257          831    5.3541148    828.87385    1.0423782 
  101400    0.8087599   -7.2088782    5.4237919 0.0044574226  0.004891108          845    5.4578686    827.85945    1.0436554 
  101500     0.777206    -7.233954     5.379968 0.0044170509  0.004885031          839    5.8969259    820.71013    1.0527468 
  101600    0.8041135   -7.2246092    5.3394958 0.0043795077 0.0048787934          839    5.9987738      819.931    1.0537472 
  101700   0.80757086   -7.1777822    5.3493149 0.0043832472 0.0048725152          838    5.9842165    823.54763    1.0491196 
  101800   0.74859648   -7.1994499     5.400711 0.0044210142 0.0048662971          833     5.659605    825.28322    1.0469133 
  101900   0.75462223   -7.2436059    5.3958047 0.0044126633 0.0048602104          836    5.4656757    824.42335    1.0480052 
  102000   0.74183165   -7.2360521    5.3695646 0.0043868992 0.0048540235          849     5.638021    822.54595    1.0503972 
  102100   0.77523433   -7.2645531    5.3786235 0.0043899963 0.0048477847          844    5.1353281    827.62979     1.043945 
  102200   0.77820302   -7.1519853    5.3592713 0.0043699211 0.0048415618          842    5.9039831    825.68458    1.0464044 
  102300   0.76955766   -7.2142935    5.3956362 0.0043952722 0.0048354076          837    5.5116806    826.25547    1.0456814 
  102400   0.76011884   -7.2340751    5.3828797 0.0043805987 0.0048292685          830    5.5811942     824.1058    1.0484091 
  102500   0.76956827   -7.2531375    5.3560283 0.0043544946 0.0048231091          842    5.5769995    822.85867     1.049998 
  102600   0.73379468   -7.1938533    5.3502983 0.0043455964 0.0048168385          839    6.0169663    820.83613    1.0525852 
  102700   0.77324518   -7.1985913    5.3989427 0.0043808363 0.0048107167          823    5.7633341     824.4531    1.0479674 
  102800   0.78062635   -7.2527562    5.4222709 0.0043954855 0.0048048333          834    5.4954638     824.5075    1.0478983 
  102900   0.78831398   -7.2073114    5.4100323 0.0043813024 0.0047989791          834    6.1984942    818.95255    1.0550062 
  103000   0.78483355   -7.2442461    5.4122292 0.0043788262 0.0047931543          834    5.9855462    818.98297     1.054967 
  103100   0.77449991   -7.2193247    5.3706178 0.0043409455 0.0047871942          835    6.3616654     815.8314    1.0590424 
  103200   0.81262223   -7.2187698    5.3806177  0.004344814 0.0047811988          845    5.9379973    821.95838    1.0511481 
  103300   0.79443418   -7.2353402    5.3835899 0.0043430057 0.0047751795          838    5.5799893    824.30215    1.0481593 
  103400   0.76883307   -7.2120992    5.4007856  0.004352664 0.0047692568          839    5.6682157    824.41431    1.0480167 
  103500   0.74214558   -7.2761839    5.3486385 0.0043064722 0.0047631201          841    5.3053577    824.13791    1.0483682 
  103600   0.76598164   -7.2592401    5.3887754 0.0043346005  0.004756979          835    5.2238386    826.73889      1.04507 
  103700   0.75552769   -7.1855908    5.3808945 0.0043240875 0.0047509681          836    5.6011777    826.82697    1.0449587 
  103800   0.75247046   -7.2458141    5.3883069 0.0043258726 0.0047449602          827    5.3670097     825.9648    1.0460494 
  103900   0.74583312   -7.2764638    5.3428566 0.0042852555  0.004738763          842    5.7034564    819.84842    1.0538533 
  104000   0.76075669   -7.2378788    5.3379131 0.0042771739 0.0047325814          843    5.9524028    819.38445    1.0544501 
Loop time of 191.345 on 12 procs for 100000 steps with 864 atoms

Performance: 90308.187 tau/day, 522.617 timesteps/s
99.4% CPU use with 12 MPI tasks x no OpenMP threads

MPI task timing breakdown:
Section |  min time  |  avg time  |  max time  |%varavg| %total
---------------------------------------------------------------
Pair    | 9.8958     | 10.589     | 11.311     |  12.0 |  5.53
Neigh   | 0.9971     | 1.0292     | 1.0688     |   2.0 |  0.54
Comm    | 7.1608     | 8.2756     | 8.8993     |  15.7 |  4.32
Output  | 2.1739     | 2.1748     | 2.182      |   0.1 |  1.14
Modify  | 166.91     | 167.34     | 167.99     |   2.4 | 87.46
Other   |            | 1.934      |            |       |  1.01

Nlocal:        72.0000 ave          77 max          68 min
Histogram: 1 2 0 1 3 2 2 0 0 1
Nghost:        1634.50 ave        1646 max        1621 min
Histogram: 1 1 1 0 0 4 1 3 0 1
Neighs:        8749.25 ave        9435 max        8153 min
Histogram: 3 0 3 0 1 0 1 0 2 2
FullNghs:      17499.2 ave       18815 max       16452 min
Histogram: 1 2 1 0 3 2 2 0 0 1

Total # of neighbors = 209991
Ave neighs/atom = 243.04514
Neighbor list builds = 4880
Dangerous builds = 0

#clear
#
#next RN
#
#jump SELF



Total wall time: 0:03:12
