
units lj                  # Use reduced LJ style units
atom_style atomic         # Uncharged point particles
atom_modify map hash      # Needed for indexing of clusters etc
                          # Used to be able to find where atoms are in relation to each other.

# Define a lattice with which to populate the simulation cell. With units
# set to 'lj' the second argument to the lattice command is the reduced
# density rho* and the spacings are multiples of that required to acheive
# that density. Also define a simulation cell called 'box' in lattice units
# and fill it with atoms. Here we're creating a box which is ten lattice
# constants in each direction.
lattice fcc 1.0 spacing 1 1 1                 # All equal sizes - gives the right reduced density.
Lattice spacing in x,y,z = 1.5874011 1.5874011 1.5874011

region box block 0 6 0 6 0 6 units lattice # Defines a region, "box", in lattice units
create_box 1 box                              # Creates a simulation box as specified above,
Created orthogonal box = (0.0000000 0.0000000 0.0000000) to (9.5244063 9.5244063 9.5244063)
  2 by 2 by 3 MPI processor grid
                                              # with one type of atom
create_atoms 1 box                            # Creates particles on lattice points
Created 864 atoms
  using lattice units in orthogonal box = (0.0000000 0.0000000 0.0000000) to (9.5244063 9.5244063 9.5244063)
  create_atoms CPU = 0.001 seconds


# Set the mass of the first (and only) atom type.
mass 1 1.0

# Lennard-Jones interactions between particles, 3.5 sigma cut-off. Apply
# long range tail corrections to energy and pressure and set all coefficients
# to unity since we work in reduced units here. Note that this doesn't shift
# the potential such that it goes to zero at the cutoff. That would require
# pair_modify('shift', 'yes').
pair_style lj/cut  3.5      # non-GPU version
pair_modify tail  yes
pair_coeff 1  1  1.0  1.0   # Intearaction between 1 and 1 set with epsilon = 1 and sigma = 1

write_data data.*
System init for write_data ...
Neighbor list info ...
  update every 1 steps, delay 10 steps, check yes
  max neighbors/atom: 2000, page size: 100000
  master list distance cutoff = 3.8
  ghost atom cutoff = 3.8
  binsize = 1.9, bins = 6 6 6
  1 neighbor lists, perpetual/occasional/extra = 1 0 0
  (1) pair lj/cut, perpetual
      attributes: half, newton on
      pair build: half/bin/atomonly/newton
      stencil: half/bin/3d
      bin: standard

#############################
#   M E L T   S Y S T E M   #
#############################

velocity all create 2.4 2750902 mom yes dist gaussian # Assign velocities
                                                    # Temperature 2.4, random number seed, zero linear momentum
						                                                        # Gaussian distribution

timestep 0.002   # simulation timestep
thermo 100       # output thermodynamic data every 100 steps

# Define a fix  in this case with index 1 applied to all
# particles in the simulation. This fix is for simulations
# in the anisotropic NPT ensemble. Note that we use the MTK
# correction.
fix 1 all npt temp 2.4 2.4 0.1 iso 5.68 5.68 0.5 mtk yes tchain 5 pchain 5 # Use NPT ensemble
                                                                         # Set temperature and pressure and damping
                                                                         # Numbers of thermostats in chain and in barostat
run 1000         # run for 10000 steps
Per MPI rank memory allocation (min/avg/max) = 3.633 | 3.633 | 3.634 Mbytes
Step Temp E_pair E_mol TotEng Press Volume 
       0          2.4   -8.3859253            0    -4.790092     -2.24275          864 
     100    1.3007594   -6.4407842            0   -4.4919034    5.3582762    891.69205 
     200    1.5828213   -6.0796178            0   -3.7081338    6.4338598    907.46239 
     300    1.7629056     -5.73851            0   -3.0972122    5.5953229    954.02439 
     400    1.8733232   -5.2785237            0   -2.4717912    6.0585808    994.36537 
     500      2.02574   -4.9360708            0   -1.9009777    5.7478153    1042.8978 
     600    2.2112838   -4.6895875            0   -1.3765009    5.7138268    1079.0368 
     700    2.3146746   -4.4629638            0  -0.99497044    5.6088298    1118.0222 
     800    2.4734008     -4.39503            0   -0.6892229    5.7937797    1123.7282 
     900    2.4206618   -4.2767239            0  -0.64993368    5.5531987    1146.9555 
    1000    2.3618098   -4.2459295            0  -0.70731524    5.7000582    1143.3852 
Loop time of 0.192537 on 12 procs for 1000 steps with 864 atoms

Performance: 897488.900 tau/day, 5193.802 timesteps/s
99.8% CPU use with 12 MPI tasks x no OpenMP threads

MPI task timing breakdown:
Section |  min time  |  avg time  |  max time  |%varavg| %total
---------------------------------------------------------------
Pair    | 0.070134   | 0.079898   | 0.10461    |   4.0 | 41.50
Neigh   | 0.012196   | 0.013397   | 0.017576   |   1.5 |  6.96
Comm    | 0.053798   | 0.082223   | 0.093183   |   4.6 | 42.70
Output  | 0.00018576 | 0.00019269 | 0.0002318  |   0.0 |  0.10
Modify  | 0.014846   | 0.015254   | 0.015745   |   0.2 |  7.92
Other   |            | 0.001573   |            |       |  0.82

Nlocal:        72.0000 ave          80 max          66 min
Histogram: 2 1 2 2 1 0 2 0 0 2
Nghost:        1314.75 ave        1327 max        1295 min
Histogram: 1 0 0 2 3 0 0 1 2 3
Neighs:        6211.67 ave        7136 max        5326 min
Histogram: 2 0 0 2 1 4 1 0 0 2

Total # of neighbors = 74540
Ave neighs/atom = 86.273148
Neighbor list builds = 80
Dangerous builds = 2

# Equilibrate just above the melting temperature to avoid step fn in T

fix 1 all npt temp 1.25 1.25 0.1 iso 5.68 5.68 0.5 mtk yes tchain 5 pchain 5
run 1000
Per MPI rank memory allocation (min/avg/max) = 3.634 | 3.634 | 3.634 Mbytes
Step Temp E_pair E_mol TotEng Press Volume 
    1000    2.3618098   -4.2459295            0  -0.70731524    5.7000582    1143.3852 
    1100    1.8617945   -4.5967525            0    -1.807293    5.9593679    1083.5566 
    1200      1.66126   -5.0091582            0   -2.5201524    5.9308167    1028.0056 
    1300    1.4533368   -5.3154554            0   -3.1379734    5.5185254    997.93023 
    1400    1.3100587   -5.5224566            0    -3.559643    5.2858775     978.0358 
    1500    1.3306301   -5.7450087            0   -3.7513736    5.2687861    956.68836 
    1600    1.2302857    -5.777427            0   -3.9341343     5.385203    950.58576 
    1700    1.2545134   -5.8251615            0   -3.9455694    5.6370291    940.07281 
    1800    1.2669685   -5.8434457            0   -3.9451925    6.1076728    931.13358 
    1900    1.2975362   -5.8185374            0   -3.8744858    5.5765884    942.23221 
    2000    1.2225624   -5.8503078            0   -4.0185867    5.1330896    948.19804 
Loop time of 0.166636 on 12 procs for 1000 steps with 864 atoms

Performance: 1036992.063 tau/day, 6001.111 timesteps/s
99.9% CPU use with 12 MPI tasks x no OpenMP threads

MPI task timing breakdown:
Section |  min time  |  avg time  |  max time  |%varavg| %total
---------------------------------------------------------------
Pair    | 0.07092    | 0.078106   | 0.088622   |   1.7 | 46.87
Neigh   | 0.010111   | 0.010721   | 0.011468   |   0.4 |  6.43
Comm    | 0.049861   | 0.06117    | 0.068833   |   2.1 | 36.71
Output  | 0.00018436 | 0.00019196 | 0.00024737 |   0.0 |  0.12
Modify  | 0.014293   | 0.014599   | 0.014923   |   0.1 |  8.76
Other   |            | 0.001848   |            |       |  1.11

Nlocal:        72.0000 ave          79 max          65 min
Histogram: 1 1 0 4 0 1 1 3 0 1
Nghost:        1466.08 ave        1476 max        1447 min
Histogram: 1 1 0 0 2 0 0 4 1 3
Neighs:        7466.67 ave        8131 max        6694 min
Histogram: 1 0 2 0 3 1 3 0 0 2

Total # of neighbors = 89600
Ave neighs/atom = 103.70370
Neighbor list builds = 67
Dangerous builds = 0


# Small amount of linear quench

fix 1 all npt temp 1.25 ${temp} 0.1 iso 5.68 5.68 0.5 mtk yes tchain 5 pchain 5
fix 1 all npt temp 1.25 0.63 0.1 iso 5.68 5.68 0.5 mtk yes tchain 5 pchain 5
run 2000
Per MPI rank memory allocation (min/avg/max) = 3.634 | 3.634 | 3.634 Mbytes
Step Temp E_pair E_mol TotEng Press Volume 
    2000    1.2225624   -5.8503078            0   -4.0185867    5.1330896    948.19804 
    2100    1.2379894   -5.8693029            0   -4.0144681    5.3929856    940.93564 
    2200      1.20947   -5.9196336            0   -4.1075283    5.7371785    929.19466 
    2300    1.1788959   -5.9341843            0   -4.1678871     6.330809    917.52265 
    2400    1.1628559   -5.9890827            0   -4.2468178    5.8566995    920.70329 
    2500     1.088106    -6.013478            0    -4.383208    5.9213886    915.30875 
    2600    1.0653454   -6.0821218            0   -4.4859533    5.6860469    913.29388 
    2700    1.0690641   -6.1609307            0   -4.5591905    5.4738631    910.72918 
    2800   0.96919705   -6.1073055            0   -4.6551926    6.0641406    904.90318 
    2900   0.97955526   -6.2052667            0   -4.7376344    6.0155797     896.5355 
    3000   0.97278581   -6.2486599            0     -4.79117    5.9134817    895.21365 
    3100   0.93846212   -6.2959183            0   -4.8898544     6.036249    889.48038 
    3200   0.91820935   -6.3080261            0   -4.9323062    6.0591014    887.28584 
    3300    0.8806007   -6.4260228            0   -5.1066506    5.6265978    883.91199 
    3400   0.83300008   -6.4926487            0   -5.2445948    5.4741923    880.66509 
    3500   0.80097102   -6.5350906            0   -5.3350246    5.7118907    872.67464 
    3600   0.79228201   -6.5819514            0   -5.3949038    5.9740299    865.98834 
    3700   0.75180226   -6.6277075            0   -5.5013093    5.8281816    864.15892 
    3800   0.74051329   -6.6902728            0   -5.5807884    5.7006467    860.37017 
    3900   0.68155025   -6.7019449            0   -5.6808028    5.8133926    857.28058 
    4000   0.65780511   -6.7857035            0   -5.8001378     5.536501    855.00654 
Loop time of 0.35651 on 12 procs for 2000 steps with 864 atoms

Performance: 969398.798 tau/day, 5609.947 timesteps/s
99.8% CPU use with 12 MPI tasks x no OpenMP threads

MPI task timing breakdown:
Section |  min time  |  avg time  |  max time  |%varavg| %total
---------------------------------------------------------------
Pair    | 0.15679    | 0.17227    | 0.19373    |   2.2 | 48.32
Neigh   | 0.017201   | 0.018076   | 0.019868   |   0.6 |  5.07
Comm    | 0.10674    | 0.13015    | 0.14674    |   2.7 | 36.51
Output  | 0.00038588 | 0.0004008  | 0.00051838 |   0.0 |  0.11
Modify  | 0.030379   | 0.031073   | 0.031759   |   0.2 |  8.72
Other   |            | 0.004541   |            |       |  1.27

Nlocal:        72.0000 ave          78 max          65 min
Histogram: 1 1 1 2 1 0 2 1 1 2
Nghost:        1588.50 ave        1601 max        1573 min
Histogram: 2 0 0 1 1 2 3 0 0 3
Neighs:        8334.75 ave        9286 max        7532 min
Histogram: 1 4 1 1 0 0 1 1 0 3

Total # of neighbors = 100017
Ave neighs/atom = 115.76042
Neighbor list builds = 108
Dangerous builds = 0

#############################
# F R E E Z E  S Y S T E M  #
#############################

# Define solid atoms. This closely follows ten Wolde  Ruiz-Montero and Frenkel  Faraday Discuss  1996  104  93-110
# Compute components of the per-atom q6 vector
compute q6 all orientorder/atom degrees 1 6 components 6 nnn NULL cutoff 1.3 # compute the Q6 parameter.
                                                                             # Use all neighbours within 1.3 unit cell.

# get number of connections
compute coord_number all coord/atom orientorder q6 0.5

# An atom is solid if it has 8 or more connections (of a possible 14)
variable is_solid atom c_coord_number>=8
group solid dynamic all var is_solid    # Must be dynamic to update
dynamic group solid defined

# do clustering
compute cluster solid cluster/atom 1.3 # Create a cluster where all atoms within are solid and max 1.3 units from another member

# define chunks one chunk per cluster
compute clus_chunks solid chunk/atom c_cluster nchunk every compress yes  # Says which atoms are in which chunk

# count the size of each chunk
compute size_chunks solid property/chunk clus_chunks count


# Find the maximum entry in the vector of chunk sizes
variable max_n equal max(c_size_chunks)


# Thermo style which includes this variable
# thermo_style custom step temp pe vol v_max_n

thermo ${N}  # Print the thermo information every 100 steps
thermo 100  

# Reset the npt fix at a lower temperature (below freezing)

compute myRDF all rdf 100
fix 2 all ave/time 1 50 100 c_myRDF[*] file pcf.rdf mode vector


compute msd all msd com yes
variable twopoint equal c_msd[4]/6/(step*dt+1.0e-6)
fix 9 all vector 10 c_msd[4]
variable fit equal slope(f_9)/6/(10*dt)
thermo_style custom step temp pe c_msd[4] v_twopoint v_fit v_max_n press vol density


fix 1  all npt temp  ${temp} ${temp}  0.1  iso  5.68  5.68  0.5  mtk yes tchain  5  pchain  5
fix 1  all npt temp  0.63 ${temp}  0.1  iso  5.68  5.68  0.5  mtk yes tchain  5  pchain  5
fix 1  all npt temp  0.63 0.63  0.1  iso  5.68  5.68  0.5  mtk yes tchain  5  pchain  5

dump dmp2 all dcd ${N} traj.dcd
dump dmp2 all dcd 100 traj.dcd
dump dmp3 all dcd ${N} traj_unwrap.dcd
dump dmp3 all dcd 100 traj_unwrap.dcd
dump_modify dmp3 unwrap yes


# fix rnuntil all halt ${N} v_max_n >= 3980 error soft message no   # Stop when solidified

run 100000 # 5000000  # Run for this many steps
Neighbor list info ...
  update every 1 steps, delay 10 steps, check yes
  max neighbors/atom: 2000, page size: 100000
  master list distance cutoff = 3.8
  ghost atom cutoff = 3.8
  binsize = 1.9, bins = 5 5 5
  5 neighbor lists, perpetual/occasional/extra = 1 4 0
  (1) pair lj/cut, perpetual
      attributes: half, newton on
      pair build: half/bin/atomonly/newton
      stencil: half/bin/3d
      bin: standard
  (2) compute orientorder/atom, occasional
      attributes: full, newton on
      pair build: full/bin/atomonly
      stencil: full/bin/3d
      bin: standard
  (3) compute coord/atom, occasional
      attributes: full, newton on
      pair build: full/bin/atomonly
      stencil: full/bin/3d
      bin: standard
  (4) compute cluster/atom, occasional
      attributes: full, newton on
      pair build: full/bin/atomonly
      stencil: full/bin/3d
      bin: standard
  (5) compute rdf, occasional, copy from (1)
      attributes: half, newton on
      pair build: copy
      stencil: none
      bin: none
Per MPI rank memory allocation (min/avg/max) = 9.704 | 9.707 | 9.710 Mbytes
Step Temp PotEng c_msd[4] v_twopoint v_fit v_max_n Press Volume Density 
    4000   0.65780511   -6.7857035            0            0 8.3333333e+20            6     5.536501    855.00654    1.0105186 
    4100   0.64558584   -6.8114211  0.029806297 0.00060581898  0.026853838            8    5.9305543    847.61773    1.0193274 
    4200   0.62978038   -6.8061018  0.048761452 0.00096748902  0.022071868            8    5.8288158     849.6862     1.016846 
    4300   0.63849395   -6.8298788  0.057489724 0.0011141418  0.016289028           11    5.0179565    858.62557    1.0062593 
    4400   0.62634815   -6.8434698  0.066138834 0.0012526293  0.013030018            9    5.7086199    848.43794     1.018342 
    4500   0.65021811   -6.8994339  0.074471134 0.0013790949  0.011282065           10    5.4744146    847.47345     1.019501 
    4600   0.60989446   -6.8686195  0.088238435 0.0015985222  0.010489134           16    5.8380354    844.48746    1.0231058 
    4700   0.62589352   -6.8639335  0.099671843 0.0017672311  0.010196491            6    5.4092672    850.46163    1.0159188 
    4800    0.6148885   -6.8561727   0.11113529 0.0019294319 0.0099608574           15    5.6153882    848.05029    1.0188075 
    4900   0.61064031   -6.8945266   0.12528831 0.0021307533  0.009965958            9    5.5296577    846.51356     1.020657 
    5000   0.62306898    -6.919489   0.13580916 0.0022634858 0.0099596868           48    5.6948179     842.5848    1.0254161 
    5100   0.64054569   -6.9044296    0.1437696 0.0023491762 0.0098698945           50    6.0182698     840.0114    1.0285575 
    5200   0.65109242   -6.9233774   0.15452941 0.0024764326 0.0097302653           30    5.3348335    847.44288    1.0195377 
    5300    0.6597123    -6.844246   0.16105037 0.0025322383 0.0095635904           54    5.8070673    847.06383     1.019994 
    5400   0.63589501   -6.9102579   0.16342225 0.0025219481 0.0092839131           63    5.7382827    843.37077    1.0244605 
    5500   0.63035928   -6.9293058   0.16381373 0.0024820259 0.0088856044           65    5.2051808    848.30261    1.0185045 
    5600   0.62762819   -6.8449946   0.16844745 0.0025066583 0.0084743125           46    5.7929579    847.22295    1.0198024 
    5700   0.63457857   -6.8818049   0.17349356 0.0025364553 0.0081175115           57    5.7298179    844.70754    1.0228392 
    5800   0.63085317   -6.9040869   0.18220682 0.0026179139 0.0078239268           35    5.6331041    844.89134    1.0226167 
    5900   0.64817494   -6.9257721   0.18464078 0.0026079204 0.0075761052           39    5.9277061    839.74499    1.0288838 
    6000   0.65637859   -6.9118263   0.19236479  0.002671733 0.0073361257           61    5.8802734    841.61327    1.0265998 
    6100   0.64011572   -6.9472139   0.20366723  0.002782339 0.0071675987           63     5.345022    845.55705    1.0218116 
    6200   0.63103833   -6.9190832   0.21348782 0.0028694598 0.0070597489           80    6.0234296     838.5587    1.0303393 
    6300   0.64194971   -6.9416153   0.21583303 0.0028549341 0.0069561674           37    5.5313484    842.96192    1.0249573 
    6400   0.62417528   -6.8578982   0.22652345 0.0029495239 0.0068540406           38    5.8118081    845.25149     1.022181 
    6500   0.62063116   -6.9117982   0.23922289 0.0030669599 0.0068014357           35    5.3105503    848.88103    1.0178105 
    6600   0.62401429   -6.9370763   0.24736205  0.003123258  0.006777244           70    5.7860104    840.74373    1.0276615 
    6700   0.62957158   -6.9046311   0.25463707 0.0031671275 0.0067663562           78    6.3385879    835.98797    1.0335077 
    6800   0.65366049   -6.9306148   0.26157007 0.0032055153 0.0067479074           40     5.805621    841.25441    1.0270377 
    6900   0.61409221   -6.9387106   0.26027838 0.0031434585 0.0067056315           40    5.5360014    842.99307    1.0249195 
    7000    0.6149948   -6.9864615   0.25933121 0.0030872761 0.0066092856           21    5.1508192    845.00642    1.0224774 
    7100   0.64239864   -6.9047041   0.26611531  0.003123419 0.0065069546           31    5.8711696    842.03902    1.0260807 
    7200    0.6123717   -6.8954245   0.27639071 0.0031989663 0.0064334396           26    5.8217075    842.29604    1.0257676 
    7300   0.63304544   -6.9338861   0.28089403 0.0032065526 0.0063645504           63    5.5984785    842.92684        1.025 
    7400   0.60613676     -6.91109   0.27873586 0.0031389171 0.0062846909           59    5.8762647    841.03515    1.0273055 
    7500   0.59387072   -6.8986465   0.28556066 0.0031728961 0.0061932772           34    5.5930567    845.06577    1.0224056 
    7600   0.61804575   -6.9140083   0.28572645 0.0031329653 0.0060976234           51    5.4550461    846.20735    1.0210263 
    7700     0.609163   -6.9081958   0.28563805 0.0030913207 0.0060008496           29    5.5920396     844.6712    1.0228832 
    7800   0.59720244   -6.9329007   0.28016429  0.002993208 0.0058782416           29    5.7930429     840.4572    1.0280119 
    7900   0.62732042   -6.9532159    0.2819257 0.0029738996 0.0057435689           66     5.412748    844.17031    1.0234902 
    8000   0.65402545   -6.9099395   0.29030961 0.0030240582 0.0056260034           20    5.6993189    843.46993      1.02434 
    8100   0.63584721   -6.9118536   0.29563687 0.0030415314  0.005526824           49    5.6775999    843.26333     1.024591 
    8200   0.61382253   -6.9269476    0.2966688 0.0030149267 0.0054301039           35    5.8071899    840.69479    1.0277214 
    8300   0.65013773    -6.918273   0.30106781  0.003022769 0.0053348872           33    5.7445982    842.28041    1.0257867 
    8400   0.68051975   -6.9623388   0.30463183  0.003022141 0.0052478993           21    5.5206161    842.41423    1.0256237 
    8500   0.64829874   -6.9295282    0.3114281 0.0030532165 0.0051710617           17    5.9985611    838.45466    1.0304672 
    8600   0.59889151   -6.9365063   0.31976796 0.0030985266 0.0051050425           15    5.7277772    840.92285    1.0274427 
    8700   0.63195677   -6.9727114   0.32998222 0.0031607491 0.0050540378           11    5.1975991    845.21538    1.0222246 
    8800   0.62665602   -6.8892921   0.33224771  0.003146285 0.0050094432            9    5.7195242    844.97888    1.0225108 
    8900   0.63254183   -6.9419587   0.33780438 0.0031629622 0.0049646949           11    5.6253141     842.1579    1.0259359 
    9000   0.60982109   -6.9523666   0.33412102  0.003093713 0.0049203959            6    5.7745194    839.33657    1.0293844 
    9100   0.63591876   -6.9519591   0.33222336 0.0030423383 0.0048583358           12    5.5533854    842.55251    1.0254554 
    9200   0.63597318   -6.9839829   0.33293387 0.0030157052 0.0047937265            7    5.6233861    839.40667    1.0292985 
    9300   0.61934833   -6.9702632   0.33334837 0.0029869924 0.0047268376            8    5.5205782     841.7698    1.0264089 
    9400   0.62016557   -6.9172943   0.32768297 0.0029049907 0.0046530764           12    5.9217047    839.71438    1.0289213 
    9500   0.64219499    -6.942756   0.33464215 0.0029354573 0.0045788461           17     5.362341    845.62942    1.0217241 
    9600   0.62874913   -6.8986624   0.33926185 0.0029449811 0.0045143533           14    5.7277319    843.95808    1.0237475 
    9700   0.64673516   -6.9664029   0.33663894  0.002892087 0.0044488913           11    6.0029776    836.07952    1.0333945 
    9800   0.63844986   -6.9226421   0.34366873  0.002922353 0.0043859695            9    5.9022849    840.32241    1.0281768 
    9900   0.64454148   -6.9492229   0.35289362 0.0029704849 0.0043329062           16    5.2128426    847.19274    1.0198388 
   10000   0.59946365   -6.9265373   0.35748553 0.0029790459 0.0042860829           23    5.7089695    841.58767     1.026631 
   10100   0.61362566   -6.9235088    0.3575468 0.0029500559 0.0042404273            5    5.7520969    841.79534    1.0263777 
   10200   0.62945951    -6.927082   0.35800285 0.0029248597 0.0041920021            9    5.5889087    843.60312    1.0241783 
   10300    0.6183164   -6.9507736   0.36401136 0.0029450756 0.0041475847           17     5.842237    838.62008    1.0302639 
   10400   0.64425049   -6.9531229   0.36638614 0.0029357862 0.0041069944           41    5.7365892    840.00141    1.0285697 
   10500   0.63776233   -6.9469238   0.37277953 0.0029585675 0.0040683602           31    5.4474354    843.62278    1.0241544 
   10600   0.62862847   -6.9958943   0.37786544 0.0029706402 0.0040333899           31    5.5243534    839.33789    1.0293828 
   10700   0.62944169   -6.9180767   0.37728014 0.0029383187 0.0039995797           17    6.2126223    835.78989    1.0337526 
   10800   0.63809266   -6.9579432     0.381431 0.0029431403 0.0039663711           16      5.75106    839.67412    1.0289706 
   10900   0.59730235   -6.9646264   0.38032004 0.0029076455 0.0039312519           32     5.205549    844.77025    1.0227633 
   11000   0.62685986    -6.938446   0.38321805 0.0029031669 0.0038954591           25    6.0706605    836.71805    1.0326059 
   11100   0.63009519   -6.9479983   0.39090033  0.002934687 0.0038649905           19    5.7244881    840.16804    1.0283657 
   11200   0.60810123   -7.0091948   0.39140542 0.0029122425 0.0038323133           36    5.5238582    838.89134    1.0299308 
   11300   0.62170679   -6.9813518   0.40306773 0.0029724757 0.0038067713           46    5.4221212    841.44081    1.0268102 
   11400   0.64912814   -6.9163809   0.40332657 0.0029482935 0.0037858694           19    6.2629499    835.75615    1.0337944 
   11500   0.61881355   -6.9736284   0.39625028 0.0028713787 0.0037574096           11    5.4595632    841.95798    1.0261795 
   11600   0.62469413   -6.9849941   0.40654968 0.0029206154  0.003727186           18    5.5252924    839.74309    1.0288861 
   11700   0.62123222   -6.9213973   0.40812514 0.0029068741 0.0037034258           13    6.0512775     838.0808    1.0309269 
   11800   0.65038828   -6.9519338   0.41230705 0.0029117728 0.0036795923           28     5.717054    840.37759    1.0281093 
   11900   0.62315857   -6.9965965   0.41474873 0.0029044027 0.0036550538           16    5.4336514     840.5462     1.027903 
   12000   0.64981218   -6.9782467   0.41596637 0.0028886552 0.0036309881           17    5.7961498    837.16849    1.0320503 
   12100    0.6433869   -6.9571777   0.41787059 0.0028778965 0.0036059482           16     5.990592    836.87156    1.0324165 
   12200    0.6093732   -6.9932914   0.42822217 0.0029250147  0.003584971           47    5.1767519    843.77033    1.0239753 
   12300   0.64041866   -6.9839923   0.42497651 0.0028792445 0.0035637778           34    5.4317347    841.51225     1.026723 
   12400   0.65105213   -6.9727319   0.42545683 0.0028592528 0.0035413336           13     5.764116    838.41388    1.0305173 
   12500   0.66053727   -6.9882037    0.4257411 0.0028382739  0.003517353           17    5.7230954     837.8934    1.0311574 
   12600   0.57791133   -6.9595865   0.42815408 0.0028317068 0.0034923299           17    5.7707816    838.36969    1.0305716 
   12700   0.63112956   -6.9856738   0.43055819 0.0028251849 0.0034683702            9    5.5358825    840.27035    1.0282405 
   12800   0.64399979   -6.9496923   0.42971557 0.0027976273 0.0034438006            8    5.9404475    837.84778    1.0312136 
   12900   0.65955824   -6.9752505   0.43436776 0.0028059932 0.0034207166           28    5.3855613    843.11959    1.0247657 
   13000   0.61376264    -6.964426   0.42956016 0.0027535907 0.0033961185           37    5.6835557    839.72744    1.0289053 
   13100   0.65474379   -6.9454223   0.42978527 0.0027340029 0.0033688654           41    6.2487328    834.48718    1.0353664 
   13200   0.64578044    -6.953026   0.44039861 0.0027802942 0.0033446438           44    5.7413344    840.02167    1.0285449 
   13300   0.61355152   -6.9678126   0.44863239 0.0028109798 0.0033248617           37     5.578751    840.80634     1.027585 
   13400   0.64633719   -6.9405306   0.46283004 0.0028782962 0.0033104866           39     5.741031    840.71938    1.0276913 
   13500   0.62272981   -6.9396739   0.47651656 0.0029414602 0.0033019947           23    5.7655648    840.73874    1.0276676 
   13600   0.60822512   -6.9801502   0.48383034 0.0029646466 0.0032987012           38    5.7369819    837.66382      1.03144 
   13700   0.60276547   -6.9500046   0.47992941 0.0029192785 0.0032937393           32    5.8019353    838.74578    1.0301095 
   13800   0.61452823   -6.9516936   0.48267655 0.0029147134 0.0032849425           33    5.5415335    842.04736    1.0260706 
   13900   0.63388484    -6.974549   0.48204463 0.0028899557 0.0032774338           26    5.6669866    839.24657    1.0294948 
   14000   0.62356342    -6.958014   0.48057676 0.0028605759 0.0032666923           26    5.8543192    838.33564    1.0306135 
   14100   0.65446568   -6.9626257   0.47362095 0.0027991781 0.0032527815           33    5.6380075    840.52513    1.0279288 
   14200   0.60913123   -6.9726043   0.45829319 0.0026895139  0.003230893           25    5.4290223    842.11087    1.0259932 
   14300   0.63785867   -6.9610743   0.45574122 0.0026558345 0.0032071478           25    6.1628584    834.03715    1.0359251 
   14400   0.60527583   -7.0334429   0.45592921 0.0026384791 0.0031822405           28    5.4764475    836.92684    1.0323483 
   14500   0.63221287    -7.027109   0.45841419 0.0026345642 0.0031561325           17    5.5137884    837.31121    1.0318744 
   14600   0.62371825   -6.9499404   0.46983435 0.0026817028 0.0031336759           33    5.8806595    837.79396    1.0312798 
   14700   0.64360231   -7.0064102   0.47795335  0.002709486 0.0031149065           23    5.1011063    844.62055    1.0229446 
   14800    0.6185651   -6.9415316   0.47708042 0.0026862636  0.003096838           16    6.0038051    837.00508    1.0322518 
   14900   0.66345773   -6.9376826    0.4827387 0.0026998808 0.0030804723           30    5.9772997    837.79468    1.0312789 
   15000   0.63064649   -7.0274417   0.48463365 0.0026924091 0.0030640151           37    4.8844777    845.11661    1.0223441 
   15100   0.61293458   -6.9637768   0.48249679 0.0026627857 0.0030457532           33    6.0159438    835.20368    1.0344782 
   15200   0.64369856   -6.9768019   0.49258252  0.002700562 0.0030300948           15    5.8962926    835.96269     1.033539 
   15300   0.63181583   -6.9729405   0.50499366   0.00275051 0.0030182649           20    5.5811297    840.47331    1.0279922 
   15400   0.63934973   -6.9285749   0.49820974 0.0026959401 0.0030060742           22    5.7013654    841.94777    1.0261919 
   15500   0.63413163   -6.9732584   0.48648582 0.0026155151 0.0029901168           15    5.6521281    839.64949    1.0290008 
   15600   0.62652932   -6.9498469   0.49649402 0.0026522116 0.0029731144           12    5.8125373    839.15902    1.0296022 
   15700   0.64925611    -6.957095   0.48818449 0.0025912127 0.0029561687           11    5.5586153     841.9175    1.0262288 
   15800   0.61481012   -6.9816045   0.48991002 0.0025839135 0.0029366662           11    5.5030983    840.42062    1.0280566 
   15900   0.59486237   -6.9653898    0.4936032 0.0025870188 0.0029188994           10    5.5586381    840.80146     1.027591 
   16000   0.62202364   -6.9381142   0.49285831 0.0025669703 0.0029011816           19    5.7728101     840.6297    1.0278009 
   16100   0.64517779   -6.9234475   0.48773282 0.0025244969 0.0028816738           24    5.8124153    841.45181    1.0267968 
   16200   0.62288688    -6.991872   0.48311027 0.0024851351 0.0028605725           39    5.3595116    841.71709    1.0264732 
   16300   0.65762696   -6.9604229    0.4839953 0.0024744135 0.0028393884           19    6.0318171    836.20325    1.0332416 
   16400   0.63894254   -6.9758651   0.48626296 0.0024708483 0.0028178658           16    5.9301177    835.72347    1.0338348 
   16500   0.63914895   -7.0131214   0.48427634   0.00244584 0.0027968469           14    5.3670207    840.60064    1.0278365 
   16600   0.61659855   -6.9566069    0.4882656 0.0024511324 0.0027756496            8    5.7140302    839.62728     1.029028 
   16700   0.65401561   -6.9547252   0.48617591 0.0024260274 0.0027544866           12    5.8475291    838.39131     1.030545 
   16800   0.63183511   -6.9745125   0.50024167 0.0024813574 0.0027360729           10    5.8183082    837.47726    1.0316698 
   16900   0.62676164   -6.9656647   0.50458382 0.0024880858 0.0027200151            6    5.6851043    839.74997    1.0288777 
   17000   0.62745416   -6.9370564   0.49762667 0.0024393464  0.002702699            4       5.4949    843.66953    1.0240977 
   17100   0.62698074   -6.9679851   0.49061665 0.0023909193 0.0026831746           12    5.9298896    836.77801    1.0325319 
   17200   0.61689823   -6.9719036   0.49310719 0.0023890852 0.0026633572            9    5.8770463    836.67742    1.0326561 
   17300   0.65565647   -7.0015645   0.49368817  0.002378074 0.0026436721           13    4.9999975    846.09162     1.021166 
   17400   0.61211832    -6.963908   0.48693261 0.0023320527 0.0026235079           12    5.4545379    842.41677    1.0256206 
   17500   0.58520307   -6.9697401   0.49455287 0.0023550136 0.0026028766           27    5.9215087    835.56084     1.034036 
   17600   0.63025894   -7.0021273   0.49987845 0.0023668487 0.0025843223           24    5.4094519    840.48832    1.0279738 
   17700    0.6314318   -6.9414559    0.5187492  0.002442322 0.0025696406           14    6.0871832    836.04159    1.0334414 
   17800   0.64221316   -6.9526298    0.5208043 0.0024382223 0.0025572066            9    5.5975638     841.9511    1.0261879 
   17900    0.6273894   -6.9575448   0.51481478 0.0023967168 0.0025440497           33    5.5357247    841.80197    1.0263697 
   18000    0.6100314    -6.974063   0.51152404 0.0023681668 0.0025286467           23    5.5925956    839.65871    1.0289895 
   18100   0.64789456   -6.9461134   0.51142196  0.002354613 0.0025134447           17    5.9879584    837.69206    1.0314053 
   18200   0.65554358   -6.9213605   0.52269371 0.0023932862 0.0025000808           25    5.8385762    841.06421      1.02727 
   18300   0.62062211   -6.9683029    0.5179169 0.0023584558 0.0024864195           16    5.4292071    842.79108    1.0251651 
   18400   0.62612714   -6.9729703   0.51125689  0.002315475 0.0024713723           28    5.4309867    842.35838    1.0256917 
   18500   0.61809438   -6.9251143   0.50951898 0.0022951305 0.0024552859           37    5.9194985    839.12978    1.0296381 
   18600   0.62612526   -6.9966746   0.50419859 0.0022589542  0.002438334           19    5.2946808    842.09345    1.0260144 
   18700   0.61216172   -6.9941394   0.51339847 0.0022878719 0.0024216402           33    5.4887592    839.91692    1.0286732 
   18800   0.67140901   -6.9783809    0.5113013 0.0022664064 0.0024061407           40    5.9342319      836.271    1.0331579 
   18900   0.62448246   -6.9843649   0.51580163 0.0022742576 0.0023911497           59    5.8997659    835.40906    1.0342239 
   19000   0.64571794   -7.0048168   0.52496321 0.0023024702 0.0023775804           18    5.3541642    841.36691    1.0269004 
   19100   0.60795105   -6.9732065   0.53081663 0.0023159538 0.0023650352           14    5.5979401    839.53184     1.029145 
   19200   0.61988236   -7.0293852   0.53756854 0.0023331967 0.0023536585           30    5.7547723    834.09257    1.0358562 
   19300   0.64380053    -7.002125   0.55168788  0.002382072 0.0023451842           29    5.6360091    838.10729    1.0308943 
   19400   0.64864542   -6.9682711   0.54636748 0.0023469393 0.0023368478           10    5.9092166    836.65458    1.0326842 
   19500   0.62980885   -7.0103517   0.54526801 0.0023302051 0.0023273764           11    5.8933009    834.34983    1.0355369 
   19600   0.63612601   -7.0106262   0.54390948 0.0023125402 0.0023176905           11    5.7578102    835.10932    1.0345951 
   19700   0.63866608   -6.9724337   0.54331373 0.0022982814 0.0023075386           22    5.7461732    838.61517    1.0302699 
   19800   0.63253196   -7.0094456   0.53930048 0.0022697831 0.0022968358            9    5.4980584    838.80007    1.0300428 
   19900   0.61533458   -6.9695454    0.5445474 0.0022803492 0.0022853393           14    5.8192189    837.30277    1.0318848 
   20000   0.66287546   -6.9852514   0.53857703 0.0022440709 0.0022745442           17    5.6087887    838.95833    1.0298485 
   20100   0.62710042   -6.9741053   0.54446982 0.0022573375 0.0022631028           28    5.7120803    838.58003    1.0303131 
   20200   0.62907722   -6.9660017   0.55256313 0.0022795508 0.0022533941           21    5.6446798    839.80928     1.028805 
   20300   0.66853432   -7.0054841   0.54613313 0.0022419258 0.0022432461           15    5.4461388    840.51416    1.0279422 
   20400   0.62825915   -6.9833243   0.55312229 0.0022594864 0.0022334955           17    5.6590986    838.73758    1.0301196 
   20500   0.65671213   -6.9943943   0.55417364 0.0022527383 0.0022238424           41    5.9315675    834.44919    1.0354136 
   20600   0.62315774   -6.9836252   0.56241674 0.0022751486 0.0022155552           23    6.0682815    833.73212    1.0363041 
   20700   0.62847693   -6.9928697   0.55665183 0.0022409493 0.0022067872           25    5.3918598    841.45083     1.026798 
   20800   0.61632701   -6.9756728   0.56016584 0.0022442541  0.002197799           27    5.8035914    836.51302     1.032859 
   20900   0.63098954   -7.0553931   0.56743647 0.0022625058 0.0021894617           17    5.6899634    833.77192    1.0362546 
   21000   0.64187646   -6.9771334   0.57040817 0.0022635244  0.002182212           34    6.0342857    834.51362    1.0353336 
   21100    0.6199607   -7.0195283   0.58094354 0.0022944057 0.0021755281           24    5.0899573    843.07583    1.0248188 
   21200      0.64554   -7.0111153   0.58009613  0.002280252 0.0021695578           20    5.3850755    840.65878    1.0277654 
   21300   0.64841402   -6.9787837   0.57011863  0.002230511 0.0021624299           19    5.9560607    835.78343    1.0337606 
   21400   0.63244684   -6.9911172   0.57382411 0.0022345175 0.0021546647           21    5.7733697    836.76384    1.0325494 
   21500   0.65072958   -6.9808593   0.57733007 0.0022377134 0.0021472736           28    5.8055613     837.6254    1.0314873 
   21600   0.66985339   -6.9524496   0.59040409 0.0022777935 0.0021414814           25    5.6089987    842.01872    1.0261055 
   21700   0.63183805   -6.9523046   0.58420157 0.0022434776 0.0021352733           24    5.8705403    838.19516    1.0307862 
   21800   0.62400277   -6.9735668   0.59075426 0.0022582349 0.0021293355           18    5.8524895    836.76517    1.0325478 
   21900   0.63119888   -6.9845042   0.59054269 0.0022471182  0.002123622           19     5.639183     838.7693    1.0300806 
   22000   0.62681353    -6.953139   0.59129747 0.0022397631 0.0021176661           18    5.5230762    842.30152    1.0257609 
   22100   0.66012636   -6.9571726   0.59640146 0.0022488742 0.0021119131           11    5.4222099    843.81872    1.0239166 
   22200   0.60131722   -6.9486883   0.58203744 0.0021848252 0.0021055529           25    6.0014529    836.57676    1.0327803 
   22300   0.62509904   -6.9734248   0.58172923  0.002173876 0.0020974499           22    5.4261248    842.22922     1.025849 
   22400   0.64236189   -6.9381025   0.59167606 0.0022011758  0.002090066           19     5.391454    845.59572    1.0217649 
   22500   0.63691628   -6.9461766   0.59132638 0.0021900976 0.0020832917           13    5.6543867    841.22886    1.0270689 
   22600   0.61347014   -6.9592171   0.59231771 0.0021840623  0.002076536           33     5.973332    836.04191     1.033441 
   22700   0.66378644   -7.0239842   0.59387318 0.0021801511 0.0020697475           25     5.578959    837.69383    1.0314031 
   22800   0.64926231   -6.9553552   0.59304178 0.0021675503 0.0020628863           20    5.8738743    838.00695    1.0310177 
   22900   0.62142167   -6.9829419   0.59768935 0.0021749976 0.0020563372           32    5.8541458    836.09293    1.0333779 
   23000   0.61674394   -6.9697187   0.59949443 0.0021720812 0.0020502899           22     5.700273    838.43532    1.0304909 
   23100   0.63740838   -6.9925214   0.60157398 0.0021701803 0.0020440756           55    5.7431158    837.20344    1.0320072 
   23200   0.60341942   -6.9760948   0.60762623 0.0021825654 0.0020382139           35    5.7751261    837.37995    1.0317897 
   23300   0.64217484    -6.973434   0.61111782  0.002185686 0.0020330656           26    5.3205613    843.71576    1.0240416 
   23400   0.61403397   -6.9247176   0.60262427 0.0021460978 0.0020273065           21    6.4964464    832.41563     1.037943 
   23500   0.61766432   -7.0054519   0.61521936 0.0021816289 0.0020221214           23    5.5612694     838.2398    1.0307313 
   23600   0.61912427   -7.0230425   0.61236414 0.0021623027 0.0020166674           25    5.1634325     842.5675    1.0254371 
   23700   0.61921209   -6.9628663   0.60217295 0.0021173451 0.0020100238           22     5.723179    839.38446    1.0293257 
   23800   0.64082249   -6.9665426   0.60431086 0.0021159344 0.0020033713           20     5.685522     839.6274    1.0290279 
   23900   0.65466647   -7.0072755   0.59646407 0.0020797212  0.001995894           13    5.5527722    838.62622    1.0302564 
   24000   0.61964152   -6.9969769   0.60599568 0.0021041516 0.0019887696           20    5.6707915     837.7591    1.0313227 
   24100   0.64816031   -6.9907014   0.62099735 0.0021472937 0.0019829226           27    5.5361856    839.86697    1.0287343 
   24200    0.6375837    -6.980525   0.63001668 0.0021694789 0.0019787642           43    5.4618637    841.81338    1.0263558 
   24300   0.62774948   -6.9784349   0.61819359 0.0021200054 0.0019741006           41    6.0757923    833.82378    1.0361902 
   24400   0.61840442   -7.0035958   0.62023308 0.0021182823 0.0019686461           68    5.6360319    837.46631    1.0316833 
   24500   0.61634285   -7.0412814   0.62342224 0.0021204838 0.0019634208           36    5.0484785    842.54748    1.0254615 
   24600    0.6112684   -6.8967226   0.61415064  0.002080456 0.0019573429           27      6.45052    834.49602    1.0353554 
   24700   0.65199593   -6.9566903   0.62451568 0.0021070029 0.0019517944           18    5.7230377    840.14784    1.0283904 
   24800   0.60874557   -7.0211391   0.62781498 0.0021095933 0.0019464412           32    5.1151261    842.66391    1.0253198 
   24900    0.6444481   -6.9872772   0.62329189 0.0020859835  0.001941075           25    5.8209383    836.50619    1.0328674 
   25000   0.62494063   -6.9658078   0.62965516 0.0020988505 0.0019358868           36    6.0106024     835.2338    1.0344409 
   25100   0.64092153   -7.0002281   0.64690955  0.002147774 0.0019316306           35    5.0450221    845.45028    1.0219406 
   25200   0.63549831   -6.9605622   0.64722708 0.0021403011 0.0019282483           18    5.6960031    840.19921    1.0283276 
   25300   0.62463421   -6.9451012   0.64603596 0.0021279181 0.0019250353           27    6.1839495    835.10408    1.0346016 
   25400   0.62364238   -6.9770538   0.63347361 0.0020783255 0.0019208736           23    6.0247827    834.69202    1.0351123 
   25500   0.62005215   -7.0236268   0.63098187 0.0020620322 0.0019152525           42    5.2577433    840.86692     1.027511 
   25600   0.64133783   -6.9437213   0.63305658  0.002060731  0.001909635           30    6.0354657    836.99836    1.0322601 
   25700   0.63010433   -6.9684872   0.63635759 0.0020634163 0.0019043355           66    5.7744953    837.92459     1.031119 
   25800   0.65009571   -7.0017616   0.64109247 0.0020707121 0.0018995429           75    5.5770544    838.78251    1.0300644 
   25900   0.60467519   -7.0147671   0.64915513 0.0020886587  0.001895226           91    5.5367445    837.67296    1.0314288 
   26000   0.60262389   -6.9609583   0.65643675 0.0021039639  0.001891508           63    5.8009184    837.88321      1.03117 
   26100   0.64123034   -7.0009085   0.65864946 0.0021029676 0.0018882644           96    5.3677222    842.06369    1.0260506 
   26200   0.65503141   -6.9256993   0.65668187 0.0020886827 0.0018846544           94    5.6423235    843.14978     1.024729 
   26300    0.6311114   -6.9583304    0.6530492 0.0020692306 0.0018808179           81    5.9224449    836.88467    1.0324003 
   26400    0.6437724   -7.0001461   0.65344097 0.0020626293 0.0018768258           92    5.6005479    838.28828    1.0306717 
   26500   0.62497838   -6.9743956   0.65222424 0.0020510196 0.0018719787          104    5.7196825    838.28826    1.0306717 
   26600   0.62528092   -7.0407058   0.65958209 0.0020663599 0.0018678563          100    5.2905566    839.46768    1.0292237 
   26700   0.58699196    -7.028176   0.66347435 0.0020707688 0.0018642115           92    5.6908787    834.61692    1.0352055 
   26800    0.6450578   -7.0290812   0.66830617 0.0020780664 0.0018608619          101    5.7355636    834.81161     1.034964 
   26900   0.64296078   -6.9890409   0.66851264 0.0020709809 0.0018577571           74    5.8335926    836.49908    1.0328762 
   27000   0.62219533   -6.9626972   0.66952688 0.0020664409 0.0018545196           99    6.1008832    834.73693    1.0350566 
   27100   0.63537553   -7.0367883   0.67591981 0.0020784742 0.0018514784          111    5.3434961    839.02416    1.0297677 
   27200   0.64527056   -7.0016878   0.68095307 0.0020862532 0.0018486395           99    5.4414909    840.59806    1.0278396 
   27300   0.62570072   -6.9804127   0.68754883 0.0020987449 0.0018463344          100      5.73959    837.61787    1.0314966 
   27400   0.61715591   -7.0469613   0.68597366 0.0020862946 0.0018440716          100    5.0840989    841.60339    1.0266118 
   27500   0.62532451    -6.975437   0.69503199 0.0021061575 0.0018416568           65    5.4838114    841.28075    1.0270056 
   27600   0.65386424   -6.9603693   0.69241373 0.0020906211  0.001839647          107    5.9362404    837.29079    1.0318996 
   27700   0.63211358   -6.9912075   0.70163655 0.0021108199 0.0018379336          101    5.8503023    835.61515    1.0339688 
   27800   0.63362245   -6.9857494   0.71068184 0.0021303412 0.0018367026           81    5.5764486    839.42203    1.0292796 
   27900   0.64174115    -6.947404   0.73077382 0.0021827175 0.0018369982           31    5.7030426    840.82079    1.0275674 
   28000   0.62305814   -6.9599684   0.72856119 0.0021683368 0.0018379165           46    5.9123231    837.11053    1.0321218 
   28100   0.64092662   -7.0340253    0.7235633 0.0021457986 0.0018377741           71    5.4132423    838.29316    1.0306657 
   28200   0.63187101   -6.9888269   0.71251564 0.0021055426 0.0018370228          121    5.6478056    838.84091    1.0299927 
   28300   0.63468643   -6.9383062   0.69843659 0.0020566448 0.0018346732          103    6.0118509    836.96359     1.032303 
   28400   0.60743427   -6.9630311   0.71243721 0.0020904847  0.001832501          100     5.414636    842.84986    1.0250936 
   28500   0.65530747   -6.9763014   0.71338081 0.0020859088 0.0018305392          117    5.6876405    838.98308    1.0298181 
   28600   0.62563687   -6.9824011   0.71472283 0.0020825257 0.0018290794           95    6.4478339    829.11293    1.0420776 
   28700   0.64044375   -7.0251639   0.71750069 0.0020833353 0.0018276081          125    5.3930944    839.08934    1.0296877 
   28800   0.64831657   -7.0080803   0.71390863 0.0020657078 0.0018256664          126    5.4769509    839.37898    1.0293324 
   28900   0.61074137   -7.0038534   0.71335224 0.0020569557 0.0018233307          143    5.5971329    837.88766    1.0311645 
   29000   0.67927475   -6.9925278   0.71592434 0.0020572538 0.0018211834           77    5.9288429    835.16837    1.0345219 
   29100   0.65077548   -7.0107256   0.72028285 0.0020626656 0.0018192906          115    5.5623169    838.34969    1.0305962 
   29200   0.61052134   -7.0108389   0.73204992 0.0020891835 0.0018177106          149    5.7487614    835.41847    1.0342122 
   29300   0.61439449   -7.0137033   0.72861296  0.002072278 0.0018164018          150    5.5015259     838.1497    1.0308421 
   29400   0.62815336   -6.9910229   0.71564824 0.0020284814 0.0018142458          176    5.9228217    835.21906    1.0344592 
   29500   0.61998239   -6.9849865   0.72065824 0.0020357577 0.0018114474          161    5.6337853    838.61112    1.0302749 
   29600   0.63174555   -6.9841552   0.72791142 0.0020493001 0.0018095445          120    5.7124332    837.81097    1.0312589 
   29700   0.62221738   -7.0048111   0.72785297 0.0020422361 0.0018074365          148    5.5711679    838.52275    1.0303835 
   29800   0.62309141   -6.9821757   0.73805061 0.0020638999 0.0018056363          174     5.431124     841.6125    1.0266007 
   29900   0.65863339   -6.9632793   0.73904849 0.0020597784 0.0018042348          146    5.7703046    839.60579    1.0290544 
   30000    0.6234226   -6.9739784   0.74597665 0.0020721573  0.001802761          160    5.8598696    836.57003    1.0327886 
   30100   0.59778221   -7.0162461   0.76196851 0.0021095473 0.0018021088          190    5.3394324    840.56382    1.0278815 
   30200   0.63206169   -6.9708769   0.76442775 0.0021093481 0.0018020617          190    5.8804149    837.21973    1.0319871 
   30300   0.61520463   -6.9617904   0.76887321 0.0021146128 0.0018020205          183    5.7502906    839.00053    1.0297967 
   30400   0.58986575   -7.0118031   0.77783531 0.0021322239   0.00180239          164     5.263149    841.23563    1.0270606 
   30500    0.6134479   -6.9790794   0.77232094 0.0021101665 0.0018024577          173    5.8202594    836.34186    1.0330704 
   30600   0.65854198   -6.9868841   0.76936297  0.002095215 0.0018022974          207    5.6655559    838.65689    1.0302187 
   30700   0.63558151   -7.0129684   0.76608924 0.0020795039  0.001801715          186    5.5435795    838.39437    1.0305413 
   30800   0.66382735   -7.0130084    0.7724672 0.0020900086 0.0018010985          201    5.9241074    834.04727    1.0359125 
   30900   0.65352444   -7.0239599   0.78309461 0.0021119056 0.0018012933          138    5.2628983    841.20354    1.0270998 
   31000   0.66955631   -6.9697172   0.77367084 0.0020797603 0.0018011185          158    5.8057518    838.40242    1.0305314 
   31100   0.63345215   -7.0037109   0.76845028 0.0020590843  0.001800114          159    5.9082659    834.78923    1.0349918 
   31200   0.66680753   -7.0409714   0.77043673 0.0020577904 0.0017991461          150    5.2972686    839.61294    1.0290456 
   31300   0.61427668   -7.0166516    0.7733229 0.0020589001 0.0017980765          117    5.4192796    838.99649    1.0298017 
   31400   0.61102147   -6.9864979   0.76649743 0.0020342288    0.0017968          172    5.9181018    835.02782    1.0346961 
   31500   0.64550108   -6.9584228   0.76620691 0.0020270024 0.0017952143          193    5.8059611    838.84167    1.0299918 
   31600   0.63882297   -7.0196808   0.77011701 0.0020308992 0.0017937004           76    5.3894187    839.51764    1.0291624 
   31700   0.61666972   -6.9747964   0.76861077  0.002020533   0.00179214          129    6.1677812    832.69172    1.0375989 
   31800   0.64363306   -6.9458895   0.76628929 0.0020080956 0.0017902344           88    6.0394747    836.42051    1.0329732 
   31900   0.62665483    -6.997926   0.77298339 0.0020192878 0.0017884765          130    5.2131471    843.07015    1.0248257 
   32000    0.6015033   -6.9874421   0.77307134 0.0020132066 0.0017866395          124    5.5682409    838.97876    1.0298235 
   32100   0.63365038   -6.9924178   0.78002317 0.0020249822 0.0017849433          118    5.6455952    838.41558    1.0305152 
   32200   0.63980668   -6.9506872   0.77880309 0.0020155359 0.0017834067           87    5.5663531    841.97646     1.026157 
   32300   0.62509528   -6.9941902   0.78284768 0.0020197308 0.0017819016          160    5.6543529    838.21634    1.0307602 
   32400   0.63981544   -6.9790842   0.77912356 0.0020039186 0.0017803083          191    6.0569801    834.48925    1.0353639 
   32500   0.63060309   -7.0704634   0.78407399 0.0020104461 0.0017786189          220    5.0887941      839.761    1.0288642 
   32600   0.61976645   -7.0001545   0.78728265 0.0020124812 0.0017769749          226    5.7923537     836.0213    1.0334665 
   32700   0.62591299   -6.9827025   0.80085798 0.0020409224 0.0017756932          230     5.684977    838.13587    1.0308591 
   32800   0.59878474   -6.9901378   0.82442683 0.0020945803 0.0017756432          217    5.7440258    836.64922    1.0326909 
   32900   0.62453887   -6.9916605   0.83716663 0.0021204828 0.0017767885          230    5.5265672        839.5     1.029184 
   33000   0.61031138   -6.9810162    0.8335471 0.0021049169 0.0017774728          208    5.5553136     840.4283    1.0280472 
   33100   0.67337442   -6.9558878   0.84061144  0.002116343 0.0017784932          220    5.9162183    837.73219    1.0313559 
   33200   0.62380117   -6.9438275   0.84045236 0.0021095691 0.0017795973          196    6.1675909    835.16777    1.0345227 
   33300   0.61323498   -7.0118439   0.84845297 0.0021232556 0.0017806789          191    5.2049394     842.4424    1.0255894 
   33400   0.63940695   -6.9690144   0.84054451 0.0020971669 0.0017815458          230    5.6389415    839.83075    1.0287787 
   33500   0.61501969   -6.9771913   0.81909487 0.0020375494 0.0017814143          206    6.0948504    833.38533    1.0367353 
   33600   0.62634869   -7.0375743   0.83451483 0.0020697292 0.0017811386          174    5.2512157    840.21613    1.0283069 
   33700   0.62547343   -6.9864516   0.84048124 0.0020783413 0.0017811495          228    6.0414121     833.8543    1.0361522 
   33800   0.61544006   -7.0206945   0.84847006 0.0020918887 0.0017818156          240    5.6834041    835.96984    1.0335301 
   33900   0.62819284   -6.9821021   0.84751082 0.0020833599 0.0017822342          229     5.613382    839.18036     1.029576 
   34000   0.63273417   -6.9969607   0.85291332 0.0020904738 0.0017825705          216    5.3350354    841.89403    1.0262574 
   34100   0.62375664   -7.0275298   0.84267787 0.0020593301 0.0017828109          240    5.7504135    834.15505    1.0357787 
   34200   0.64774872   -6.9976847   0.83571046 0.0020363315 0.0017825154          219    6.3374589    829.64501    1.0414093 
   34300   0.66927384   -7.0049781   0.84822087 0.0020607893 0.0017824133          235    6.0739147    832.64813    1.0376532 
   34400   0.62787191    -7.007449   0.85939148 0.0020818592 0.0017827555          223    5.8500512    834.31041    1.0355858 
   34500   0.61796243   -7.0278229   0.86195406 0.0020820146 0.0017832996          223    5.5470288    837.09999    1.0321348 
   34600   0.62452904   -6.9997677    0.8725758 0.0021015795 0.0017838848          248    5.6631755    837.03628    1.0322133 
   34700   0.62975175   -6.9939052   0.87389683 0.0020986955 0.0017848643          222    5.8918499    835.32887    1.0343232 
   34800    0.6424779   -7.0294671    0.8664366 0.0020748003 0.0017852132          208     5.314649    839.83315    1.0287758 
   34900   0.60244929   -7.0052008   0.85860817 0.0020501628  0.001785231          201    5.9012392    833.77238     1.036254 
   35000   0.63312353   -7.0098662   0.86531124 0.0020602648 0.0017850793          202    5.7721679    835.19971    1.0344831 
   35100   0.62801137   -7.0291493   0.85457604 0.0020289079 0.0017848267          177    5.2040819    841.03623    1.0273041 
   35200   0.60057384   -7.0188454   0.85294281 0.0020192775 0.0017839405          205    5.9362154    831.98571    1.0384794 
   35300   0.62365049   -7.0111818   0.84562409 0.0019962797 0.0017828858          239    6.0475258    831.79599    1.0387162 
   35400   0.66150172   -7.0464178   0.85956788 0.0020234648 0.0017819942          248    5.3003066    839.17068    1.0295879 
   35500   0.62283081   -7.0196901   0.87024591 0.0020428307 0.0017815594          231    5.5998209    837.14768     1.032076 
   35600   0.64292806   -7.0079102    0.8683117 0.0020325648 0.0017812981          255    5.9484971    833.74683    1.0362858 
   35700    0.6190202   -7.0527604   0.87596859 0.0020447446 0.0017811732          260    5.7181459    833.10868    1.0370796 
   35800   0.64100697   -7.0729261   0.87548916  0.002037917 0.0017809129          250    5.4790964    835.10635    1.0345988 
   35900   0.63644171   -6.9948916   0.88256567 0.0020486668  0.001780927          269    5.9478199     833.9804    1.0359956 
   36000   0.67177462   -6.9733182   0.89141728 0.0020634659  0.001781167          204    5.8198475    838.22546    1.0307489 
   36100   0.64711876   -7.0497299   0.89237212 0.0020599541  0.001781517          200    5.3221301    838.26285     1.030703 
   36200   0.61874532   -7.0084049   0.89007216  0.002048969 0.0017815901          220    5.8947354    833.61738    1.0364467 
   36300   0.62789459     -6.98211   0.89161098 0.0020468571 0.0017815788          236    5.8806683    835.64371    1.0339335 
   36400   0.63147861   -7.0212494   0.89438619 0.0020475874 0.0017816216          262    5.4673015    838.27339      1.03069 
   36500   0.61659146   -7.0166052   0.89945276 0.0020535451 0.0017817763          249    5.6419575    836.55959    1.0328015 
   36600   0.59975703   -7.0177848   0.91599088 0.0020855894 0.0017823092          251    5.5008173    837.36163    1.0318123 
   36700   0.61143609   -6.9838318   0.90918011 0.0020644416 0.0017827188          240    5.8163318    836.63502    1.0327084 
   36800   0.63641378   -7.0071893   0.91149726 0.0020640789 0.0017832182          252    5.7804255    835.01478    1.0347122 
   36900   0.61902384   -7.0240812    0.9031147 0.0020395544 0.0017834152          261    5.7604935    834.21815    1.0357003 
   37000   0.65693304   -7.0361547   0.89681892 0.0020198624 0.0017830286          243    5.4291102    838.17319    1.0308132 
   37100   0.67128458   -6.9478642   0.90169126 0.0020253622 0.0017826538          241    6.0834603    835.98947    1.0335058 
   37200   0.65874163   -7.0273086   0.90612118 0.0020298413 0.0017824267          266    5.7725752    834.52046    1.0353251 
   37300   0.62223263   -7.0170115   0.91399875  0.002041999  0.001782263          241    5.4038389    839.25868      1.02948 
   37400   0.64001707   -6.9911355   0.90568737   0.00201802 0.0017821048          245    5.6823744    837.70961    1.0313837 
   37500   0.62758843    -7.015896   0.90979303 0.0020217623 0.0017817361          234    5.8907542    833.58948    1.0364814 
   37600   0.62014406   -7.0160232   0.91132672 0.0020197844 0.0017814597          264    5.7731061      835.002    1.0347281 
   37700   0.65380765   -7.0352612   0.91065194 0.0020129353 0.0017809284          269    5.3662087    839.22531    1.0295209 
   37800   0.63470356   -7.0094671   0.91927255 0.0020266149 0.0017806293          290    5.6242719    837.73771    1.0313491 
   37900   0.63087498   -7.0369086   0.91044845 0.0020018655  0.001780239          305    5.5896985    835.82975    1.0337033 
   38000   0.62035097   -7.0098696   0.91247708 0.0020010462 0.0017795578          308    6.0624606     831.4282    1.0391757 
   38100   0.60683015   -7.0351185   0.91254231 0.0019959368 0.0017788104          281    5.6074283    835.15841    1.0345343 
   38200   0.65168105   -7.0468639   0.90993765 0.0019850297  0.001777982          263    5.4002883     837.6387     1.031471 
   38300   0.67065959   -7.0085706    0.9162222 0.0019935209   0.00177716          235    6.4625987    827.25221    1.0444215 
   38400   0.63036002   -7.0638465   0.91395582  0.001983411 0.0017766274          231    5.6830996    832.68283      1.03761 
   38500   0.61943479   -7.0303386   0.90994027 0.0019695677 0.0017754581          247     5.445073    837.52549    1.0316104 
   38600   0.65383881   -7.0346086    0.9207918 0.0019878925 0.0017744581          246    5.4207062    838.01852    1.0310035 
   38700   0.61442978   -6.9872965   0.92686198 0.0019958268 0.0017737675          209    6.0353391    833.47124    1.0366285 
   38800   0.61298488   -7.0545778   0.92633245 0.0019895456 0.0017732133          212    5.3853304    836.70708    1.0326194 
   38900   0.63875226   -7.0550864   0.91985364 0.0019705519 0.0017723693          258    5.6865598    833.57183    1.0365034 
   39000   0.66490173   -7.0383132   0.91801559 0.0019615717 0.0017712343          294    5.9115623    831.91739    1.0385647 
   39100   0.60590829   -7.0494306   0.91807516 0.0019566819 0.0017701735          290    5.6376144    833.88658    1.0361121 
   39200   0.61959712   -7.0493231   0.92831108 0.0019734504 0.0017690152          303    5.4999536    835.59611    1.0339924 
   39300    0.6380676   -7.0558217   0.92254049 0.0019561927 0.0017679557          283    5.4966011    836.26047    1.0331709 
   39400   0.64260062   -7.0009156   0.93448168 0.0019764841 0.0017669676          285    5.5943083    838.27786    1.0306845 
   39500   0.61829466   -7.0100201   0.93564634 0.0019739374 0.0017662217          277    5.7980526    834.75367    1.0350359 
   39600   0.62896444   -7.0406039   0.92302976 0.0019424027 0.0017651235          299    5.5919424    835.41643    1.0342148 
   39700   0.61098561   -7.0568918   0.91032198 0.0019108354 0.0017634962          300    5.7018173    832.80812    1.0374539 
   39800   0.64152339   -7.0259001   0.91560562 0.0019170972 0.0017616666          293     5.821962    834.37793     1.035502 
   39900   0.64627423   -7.0093143   0.91296093 0.0019067688 0.0017598235          308     5.682985    836.87177    1.0324162 
   40000   0.61919685   -7.0551658   0.91146291  0.001898881 0.0017579679          335     5.455534    836.31596    1.0331024 
   40100   0.57744683   -7.0274197   0.91478816  0.001901056 0.0017558313          306    5.9550903    831.31529    1.0393169 
   40200   0.64136201   -7.0599936   0.92376909 0.0019149442 0.0017540503          290    5.4770546    835.83011    1.0337029 
   40300   0.64652548   -7.0273451   0.92166105 0.0019058334 0.0017522412          299    5.6345946    836.36971     1.033036 
   40400   0.61004713    -7.006165   0.94045001 0.0019398721  0.001750811          289     5.765063    835.37859    1.0342616 
   40500   0.60071643   -7.0521452   0.93856209 0.0019311977 0.0017496211          308     5.526369    835.09955    1.0346072 
   40600   0.63471548   -7.0365462   0.94170299 0.0019328879 0.0017483341          319    5.5747128    836.28394    1.0331419 
   40700   0.61878432   -7.0410711   0.94486627 0.0019346156 0.0017472726          359    5.5963164    835.34222    1.0343066 
   40800   0.60978758   -7.0520528   0.94876489 0.0019378368 0.0017461269          392    5.6556734    833.99489    1.0359776 
   40900   0.63937777   -7.0139246   0.95478116 0.0019453569  0.001745167          386    6.3081577    828.65205    1.0426572 
   41000   0.63362388   -7.0941974    0.9795515 0.0019909583 0.0017447411          363    5.1300894    837.87005    1.0311862 
   41100   0.63529051   -7.0484652   0.98233742 0.0019917628 0.0017447655          372    5.6169324    834.99153     1.034741 
   41200   0.65514453   -7.0376087   0.97673778 0.0019756023 0.0017446778          391    5.7066873    834.53971    1.0353012 
   41300   0.63254711   -7.0856063   0.97097257  0.001959186  0.001744287          354    5.6153451    832.05985    1.0383868 
   41400    0.6090651   -7.0292329   0.95456624 0.0019214296 0.0017433939          366    6.3699974    826.27629    1.0456551 
   41500   0.64850703   -7.0719312   0.97051192 0.0019488191 0.0017424578          355    5.2701691    838.00335    1.0310221 
   41600   0.63828474   -7.0744501   0.96842305   0.00193995 0.0017417404          354    5.6977517    832.42524     1.037931 
   41700   0.62288153   -7.0892593   0.96782157 0.0019340958 0.0017408576          365    5.5541806    832.32382    1.0380575 
   41800   0.65578687   -7.0873722   0.97587839 0.0019455311 0.0017399602          384    5.5824271    832.73106    1.0375499 
   41900   0.63176903   -7.0796804   0.98138963 0.0019518489 0.0017393422          385    5.7939859    830.56908    1.0402506 
   42000   0.63697666   -7.0891368   0.99535967 0.0019749199 0.0017390402          363    5.6540244    831.79511    1.0387173 
   42100    0.6575215    -7.082705    1.0000951 0.0019796023 0.0017389719          395    5.6090188    832.76382    1.0375091 
   42200   0.58315936   -7.0581475    1.0127733 0.0019999473 0.0017390093          388      5.65698    833.69526    1.0363499 
   42300   0.62955075   -7.0857705    1.0192101 0.0020079001 0.0017392575          414    5.1869727    837.58106     1.031542 
   42400   0.61330581   -7.0667446     1.014418 0.0019937461 0.0017395771          421    6.0160021    828.38095    1.0429984 
   42500   0.64989565   -7.1130937    1.0014898 0.0019637054 0.0017395311          445    5.8151718    828.69723    1.0426003 
   42600   0.62307518   -7.1072068    1.0068626  0.001969606 0.0017392144          470    5.5517457     831.3812    1.0392345 
   42700   0.63057869   -7.1156685     1.018418 0.0019875448   0.00173913          497    5.4766015    831.62128    1.0389345 
   42800   0.64745654   -7.0635371     1.019242 0.0019845055 0.0017392519          485    6.0871044    827.91767     1.043582 
   42900    0.6331666   -7.1448367    1.0120017 0.0019658152 0.0017392926          491    5.5319473    829.41905     1.041693 
   43000   0.61004533   -7.1114018    1.0143047 0.0019657068  0.001738974          486    5.6013418    830.78413    1.0399814 
   43100   0.61614002   -7.0598635    1.0176938 0.0019676988 0.0017387634          486    5.9583973    829.91567    1.0410696 
   43200   0.65137411   -7.0938925     1.013912 0.0019558487 0.0017385428          497    5.5403348    833.33621    1.0367964 
   43300   0.61663877   -7.1057153    1.0067791  0.001937604 0.0017380659          494    5.7019992    830.16084    1.0407622 
   43400   0.61784646   -7.0995241    1.0189418 0.0019564934 0.0017375493          498    5.6328997    830.33727     1.040541 
   43500   0.63334268    -7.048941      1.02088 0.0019557088 0.0017372299          480    6.0319742    829.83745    1.0411678 
   43600   0.64937042   -7.1315966    1.0221733 0.0019536952 0.0017370429          511    5.6195323    829.41667     1.041696 
   43700   0.62339229   -7.1468397    1.0164213 0.0019382557 0.0017364545          515    5.2103844    832.82158    1.0374371 
   43800   0.62096499   -7.1115368    1.0303773 0.0019603831 0.0017360604          529    5.4524205    832.72545    1.0375569 
   43900   0.64138958   -7.0285981    1.0297267 0.0019546824 0.0017358511          487    6.3742604    826.64905    1.0451836 
   44000    0.6422298   -7.1320082    1.0360665 0.0019622471 0.0017357876          497    5.5301245    830.69182    1.0400969 
   44100   0.60739026   -7.1339608    1.0379111 0.0019612831 0.0017355579          501        5.421    831.12596    1.0395536 
   44200   0.62648325   -7.0950567    1.0492313 0.0019781887 0.0017354699          479    5.5664681    832.18947    1.0382251 
   44300   0.64499499    -7.053411    1.0540965 0.0019828753 0.0017357605          489    6.1074614     828.6884    1.0426114 
   44400   0.61909706   -7.1280374    1.0582312 0.0019861696 0.0017360335          520    5.4679005    831.37682    1.0392399 
   44500   0.64278156   -7.1493689    1.0439296 0.0019549243 0.0017360535          525    5.4135604    830.70465    1.0400809 
   44600   0.62376153   -7.1245756    1.0386916 0.0019407541 0.0017356764          519    5.9167174    826.44503    1.0454416 
   44700   0.63215155   -7.1368649    1.0313398 0.0019227065 0.0017350278          526    5.7077282    828.08082    1.0433764 
   44800   0.60727072   -7.1266433    1.0364389 0.0019278997 0.0017343124          516    5.5389857    830.36193    1.0405101 
   44900   0.60777369   -7.1143516    1.0294196 0.0019105782 0.0017335749          517    5.9206456    826.45552    1.0454283 
   45000   0.63862503   -7.1071292      1.04846 0.0019415925 0.0017329258          524    5.6124481    831.15755    1.0395141 
   45100   0.62925266   -7.1411932     1.050715 0.0019414541  0.001732663          530     5.592271    828.91724    1.0423236 
   45200   0.61476498   -7.1317935    1.0467773 0.0019298992  0.001732169          530      5.75078      827.732    1.0438161 
   45300   0.59826982     -7.10715     1.044338 0.0019211515 0.0017315546          535    5.7264269    829.58339    1.0414866 
   45400   0.66093467   -7.1154337    1.0589955 0.0019438242 0.0017310589          554    5.6190044    830.86436    1.0398809 
   45500   0.64422663   -7.1247966    1.0521656 0.0019270432 0.0017307177          586    6.0074328    825.62436    1.0464808 
   45600   0.61917537   -7.1617711    1.0676369 0.0019510908 0.0017303782          585    5.6359987    827.14046    1.0445626 
   45700   0.64000969   -7.1852961    1.0768749 0.0019636668  0.001730359          616    5.1139492    832.31033    1.0380744 
   45800   0.63663621   -7.1233208    1.0879543 0.0019795384 0.0017304418          633     5.961737    825.79292    1.0462671 
   45900   0.63969853   -7.1690106    1.1065867 0.0020090535 0.0017310795          633    5.6376219    826.79482    1.0449993 
   46000   0.62961428   -7.2017669    1.1101072 0.0020110637 0.0017319374          634    5.4584535    826.75694    1.0450472 
   46100   0.59598809   -7.1751287    1.1058407  0.001998989 0.0017326186          636    5.8722313    823.60741    1.0490435 
   46200   0.63549262   -7.1758906    1.1174049 0.0020155212 0.0017334354          635      5.72345    825.25213    1.0469528 
   46300   0.65429034   -7.1849727    1.1106565 0.0019990217 0.0017341417          650    5.5465161    827.32433    1.0443305 
   46400   0.62752116   -7.1517745    1.1035757 0.0019819965 0.0017346847          631    5.7634091    826.53797     1.045324 
   46500     0.611215   -7.2074841    1.1068356 0.0019835764  0.001734955          676    5.7025133     823.4418    1.0492545 
   46600   0.62070571   -7.2366604    1.1221913 0.0020067798 0.0017355391          677    5.4385484    824.58624    1.0477982 
   46700   0.64645443   -7.1891388    1.1246802 0.0020069239 0.0017362784          669    5.7817634    823.80596    1.0487907 
   46800    0.6636143   -7.2482411    1.1215057  0.001996983 0.0017370697          675    5.7494229     821.1908    1.0521306 
   46900   0.61725996    -7.252521    1.1375431 0.0020212209 0.0017378582          671    5.6799674    821.19039    1.0521312 
   47000   0.64226514   -7.2376468    1.1573741 0.0020520817 0.0017391233          659    5.6785979     822.5177    1.0504333 
   47100   0.63194542   -7.2169858    1.1658082 0.0020626473 0.0017406768          675    5.5622467    825.10054    1.0471451 
   47200   0.63836028   -7.2689542    1.1665888 0.0020596553 0.0017422319          702    5.7620786    819.32478    1.0545269 
   47300   0.62180355   -7.2705462    1.1690379 0.0020596158 0.0017437645          692    5.6467765    819.77931    1.0539422 
   47400   0.63803017   -7.2341844    1.1735707 0.0020632397 0.0017452042          718    5.4754018    824.71484    1.0476348 
   47500   0.62667967   -7.2608677    1.1784433 0.0020674443 0.0017468552          714    5.7474723    819.88742    1.0538032 
   47600   0.62847172   -7.2989849    1.1701972 0.0020486645  0.001748251          719    5.5077243    820.43243    1.0531032 
   47700   0.60362699   -7.3086961    1.1675398  0.002039727 0.0017494629          732    5.6752585    817.64854    1.0566887 
   47800   0.63995091   -7.2886385    1.1713802 0.0020421551 0.0017506058          727    5.8373765    816.95949      1.05758 
   47900   0.64549526   -7.3097543    1.1898468 0.0020700187 0.0017519908          712    5.1137948     823.6558    1.0489819 
   48000   0.62990486   -7.3046814    1.1756687 0.0020410914 0.0017534581          748    5.9833831    814.01599    1.0614042 
   48100   0.60366212   -7.3304418    1.1727438 0.0020317806 0.0017545743          753    5.9601081    812.19569     1.063783 
   48200    0.6158107   -7.3313799    1.1912176 0.0020595048  0.001755731          768    5.2457788     820.5773    1.0529173 
   48300   0.64204733   -7.3209266    1.1961228 0.0020637039 0.0017571557          783     5.488842    818.06331     1.056153 
   48400   0.62459598   -7.3202216    1.2113003 0.0020855721 0.0017587506          764    5.9846417    812.72827    1.0630859 
   48500     0.646587   -7.3193883    1.2209541 0.0020978592 0.0017606918          793     5.652761    816.42088    1.0582777 
   48600   0.62207163   -7.3309833    1.2147698 0.0020829386 0.0017625388          794    5.5223704    817.38419    1.0570305 
   48700   0.61886137   -7.3548626    1.2111662 0.0020724951 0.0017641971          804    5.6883512    813.94524    1.0614965 
   48800   0.66071258   -7.4036115    1.2167414 0.0020777687 0.0017657876          819    5.3370264    815.21651    1.0598411 
   48900   0.61254336   -7.3872938    1.2204101 0.0020797717 0.0017673829          833    5.7177741    811.67367    1.0644672 
   49000   0.64279474   -7.3630077    1.2324685 0.0020960349 0.0017691853          843     6.008309    809.79058    1.0669425 
   49100    0.6386506   -7.4058742    1.2257495 0.0020803623 0.0017709273          831     5.995967    807.29134    1.0702456 
   49200   0.62707426   -7.4402549    1.2424113 0.0021043552 0.0017727113          837    5.2569994    813.02379    1.0626995 
   49300   0.63748649   -7.3918134    1.2499064 0.0021127558 0.0017746911          840    5.5374372    813.54323     1.062021 
   49400    0.6427973   -7.3635103    1.2307647 0.0020761887 0.0017764672          841    6.2022902    807.62424    1.0698044 
   49500   0.61373891   -7.4399243    1.2324283 0.0020747951 0.0017780156          846    5.2310644    813.55369    1.0620074 
   49600   0.62406948   -7.4148183    1.2410856 0.0020851572 0.0017795331          837    5.6629877    810.48167    1.0660327 
   49700   0.65007185    -7.359992    1.2417395 0.0020820582 0.0017811999          851    6.1336132    809.27019    1.0676286 
   49800   0.60783565   -7.4081497    1.2413182 0.0020771723 0.0017827181          845    5.5502601    811.95698    1.0640958 
   49900   0.61700583   -7.4396942    1.2450402 0.0020792255 0.0017842069          850    5.4361887    811.53317    1.0646515 
   50000    0.6073041   -7.4244214    1.2405144  0.002067524 0.0017856508          846     5.929988    806.76227    1.0709475 
   50100   0.66133221   -7.4215198    1.2369968 0.0020575463 0.0017869281          853    5.8623777     808.1671    1.0690858 
   50200   0.62945427   -7.4428986    1.2369665 0.0020533971 0.0017880938          851    5.8772476    806.43187    1.0713862 
   50300   0.61087049   -7.4584286    1.2402828 0.0020548091  0.001789263          852    5.3992962    810.58551    1.0658962 
   50400   0.63913705   -7.4172462    1.2271237 0.0020289744 0.0017901953          851     5.888947    808.15257    1.0691051 
   50500    0.6295349   -7.4432942    1.2336928 0.0020357967 0.0017910073          854    5.9328468    805.85287     1.072156 
   50600   0.64940325    -7.466749    1.2356734 0.0020350352 0.0017918716          856    5.4459022    809.99948    1.0666674 
   50700   0.64686752   -7.4147004    1.2485106 0.0020521213 0.0017928842          853    5.9237325    807.87875    1.0694674 
   50800   0.61191084   -7.4343422    1.2556016 0.0020597138 0.0017940791          854    5.6398997    809.55664    1.0672508 
   50900   0.62525421   -7.4858509    1.2495757 0.0020458018 0.0017950527          857     5.198755    811.18318    1.0651108 
   51000   0.64893577    -7.396179    1.2462067 0.0020362855  0.001795928          856    6.0518467    807.81357    1.0695537 
   51100    0.6544684   -7.4732996    1.2469358 0.0020334896 0.0017967981          859    5.6308943     807.4841    1.0699901 
   51200   0.64129622   -7.4378893    1.2367687 0.0020129699 0.0017975497          858    6.2037533    803.41288    1.0754122 
   51300   0.65351986   -7.4535734    1.2607741 0.0020480411 0.0017983016          858    5.7206798    808.06273    1.0692239 
   51400    0.6397705   -7.4542601     1.267746 0.0020553599 0.0017993061          858    5.1628106    814.16523    1.0612096 
   51500   0.61588897   -7.4573295    1.2649347 0.0020468199 0.0018002502          862    5.7358284    807.35582    1.0701601 
   51600   0.63598069   -7.4398095    1.2589307 0.0020331567 0.0018011027          858    5.9498104    805.97723    1.0719906 
   51700   0.64266467   -7.3908511    1.2677728 0.0020434764 0.0018019553          854    6.0559927    807.82343    1.0695407 
   51800    0.6082535   -7.4515933    1.2642908 0.0020339299 0.0018027472          854     5.374907    811.25176    1.0650208 
   51900   0.61787108    -7.425798    1.2435007 0.0019966293 0.0018031783          856    5.9238062     806.6518    1.0710941 
   52000   0.63049937   -7.4399352    1.2497987 0.0020028825 0.0018034276          854    5.5823697    809.96886    1.0667077 
   52100   0.62422171   -7.3776225    1.2533468 0.0020047134 0.0018038059          854    6.0273897    808.42284    1.0687476 
   52200    0.6138602     -7.44892    1.2615596 0.0020139841 0.0018042199          855    5.4513599    810.25362    1.0663328 
   52300   0.65992105   -7.4839125    1.2569591 0.0020028028 0.0018046655          850    5.6380211    807.00152      1.07063 
   52400   0.62936086   -7.4593681    1.2528531 0.0019924508 0.0018049322          855    6.0784733    803.32645    1.0755279 
   52500   0.62592453   -7.4359147    1.2777532 0.0020281796 0.0018054501          851    5.5255321    811.01574    1.0653307 
   52600   0.63117673   -7.4585855    1.2745544 0.0020192559 0.0018060458          852    5.2576284    812.40763    1.0635055 
   52700   0.63177391   -7.4494412    1.2664089  0.002002544 0.0018065178          859    5.8226718    806.64155    1.0711077 
   52800   0.61358393   -7.4263907    1.2589583 0.0019869923 0.0018067405          858    5.9876973    806.09862    1.0718291 
   52900   0.64250258   -7.4410473    1.2651173 0.0019929384 0.0018069155          852    5.6043174    809.78625    1.0669482 
   53000    0.6200064   -7.4441166    1.2650988 0.0019891491 0.0018071419          858     5.561189    809.70098    1.0670606 
   53100   0.61238838   -7.4821648    1.2598805 0.0019772135 0.0018071919          861    5.8553595    804.38312     1.074115 
   53200   0.62868019   -7.4817788    1.2577311 0.0019701301 0.0018071355          859    5.3418828    809.76902    1.0669709 
   53300   0.65710204   -7.4593194    1.2608956 0.0019713815 0.0018070481          857    5.4169129    810.86704    1.0655261 
   53400   0.64243092   -7.4545336    1.2626254 0.0019703892 0.0018069688          859    5.7973386    806.60249    1.0711596 
   53500   0.65095595   -7.4540079    1.2638492 0.0019686124 0.0018069658          861    5.8819684    806.24536    1.0716341 
   53600   0.65287441    -7.386705    1.2697695 0.0019741441   0.00180693          861    5.9811416    808.94329      1.06806 
   53700   0.62012051   -7.4170469    1.2670849 0.0019663018 0.0018069184          856    5.5067158    812.30738    1.0636368 
   53800   0.61454307   -7.4479554    1.2567137 0.0019465825 0.0018066814          861    5.7365713    807.53728    1.0699196 
   53900   0.65802431   -7.4752401    1.2547396 0.0019399189 0.0018062191          852    5.6702149    807.36742    1.0701447 
   54000    0.6486821   -7.4282251    1.2644901 0.0019513736 0.0018059469          854    5.8041658    808.60794     1.068503 
   54100   0.63068837   -7.4728398    1.2665005 0.0019508634 0.0018056619          856    5.6657338     806.8237    1.0708659 
   54200   0.63200275   -7.4654467    1.2638507 0.0019431898 0.0018053485          860    5.7757807    806.27855      1.07159 
   54300   0.64731133   -7.4258005    1.2631151 0.0019384823 0.0018050451          855    6.1349175    805.15427    1.0730863 
   54400   0.62979633   -7.4926603    1.2780604 0.0019578131 0.0018047055          856    5.0026291    813.11151    1.0625849 
   54500   0.60176733   -7.4444436    1.2670048 0.0019373162 0.0018043462          853    5.4938993    810.23311    1.0663598 
   54600    0.6372992   -7.4050527    1.2717695 0.0019410401 0.0018039348          854    5.8688771    809.00837    1.0679741 
   54700   0.63338179   -7.4910094     1.275776 0.0019435953 0.0018036024          854    5.0170856    812.89104    1.0628731 
   54800   0.60679798   -7.4072964    1.2656922 0.0019247144 0.0018031174          854    6.2378476     804.3639    1.0741407 
   54900   0.61556953   -7.4311516    1.2563648 0.0019070504 0.0018024297          859    5.7481342     808.1763    1.0690737 
   55000   0.61873888   -7.4374279     1.236879 0.0018740591 0.0018014671          853    6.0377251     804.8549    1.0734854 
   55100    0.6136812   -7.4578476    1.2449233 0.0018828241 0.0018003173          857    5.8953131     805.1133    1.0731409 
   55200   0.61938594   -7.4501362    1.2603513 0.0019027042  0.001799399          853    5.3268804    811.76152     1.064352 
[...]
   89400    0.6319072    -7.448718    1.3047681 0.0012162268 0.0011327104          857    5.8263547    806.62943    1.0711238 
   89500   0.62938323   -7.4962266    1.3026124 0.0012128607 0.0011310838          860    5.2568628    809.61312    1.0671764 
   89600   0.64732189   -7.4624004    1.2917839 0.0012014359 0.0011294213          863    5.6984718    807.18945    1.0703807 
   89700   0.60097922    -7.462961     1.277784 0.0011870903 0.0011276608          861    5.7869122    805.91414    1.0720745 
   89800   0.62472124   -7.4609388    1.2714097 0.0011798531 0.0011258554          861    5.7134919    807.02312    1.0706013 
   89900   0.64284845   -7.4491201    1.2815587 0.0011879484 0.0011240635          856     5.725657    807.89036     1.069452 
   90000   0.63877094   -7.4873549    1.2866454 0.0011913383 0.0011223246          861    5.5191985     807.6208     1.069809 
   90100   0.61493326    -7.472556    1.2940803 0.0011968926 0.0011206109          860    5.4471134    808.80737    1.0682395 
   90200   0.59461982   -7.4410764    1.3082431 0.0012086503 0.0011189833          860    5.8362143    806.41488    1.0714088 
   90300   0.60210441   -7.4336498    1.2948184 0.0011949229 0.0011173634          859    5.7102472     808.2897    1.0689237 
   90400   0.62303292   -7.4285579    1.3021324 0.0012003433 0.0011157368          863    5.9019879    806.42701    1.0713927 
   90500   0.60953387   -7.4766346    1.2908995 0.0011886736 0.0011140995          861    5.6141268    806.75376    1.0709588 
   90600    0.5786515   -7.5038438    1.2747604 0.0011725169   0.00111233          863    5.6621515    804.19709    1.0743635 
   90700   0.59663993   -7.4430882    1.2776264 0.0011738574 0.0011105341          857    6.0545107    804.01503    1.0746068 
   90800   0.60747875   -7.4258303    1.2858643 0.0011801251 0.0011088131          856    5.4665617    811.67213    1.0644692 
   90900   0.60256824   -7.4349119    1.2809727 0.0011743424 0.0011070961          858    5.6461069    809.11516    1.0678332 
   91000   0.61914681   -7.4881462    1.2701481 0.0011631393 0.0011053192          863    6.0572313    801.56179    1.0778957 
   91100   0.59928725   -7.5005417    1.2770391  0.001168166 0.0011035229          860    5.4628494     806.8647    1.0708115 
   91200   0.64012021   -7.4485429    1.2933507 0.0011817897 0.0011018665          862    5.9254227    805.40732    1.0727491 
   91300   0.63250291   -7.4804712    1.3033415 0.0011896143 0.0011002624          859    5.5323866    807.73112    1.0696629 
   91400   0.64227962   -7.5274291    1.3087487 0.0011932428 0.0010986969          860     5.621596    803.91347    1.0747425 
   91500   0.60821897   -7.4237702    1.2943244 0.0011788019  0.001097118          862    6.2151139    803.25264    1.0756267 
   91600     0.639664   -7.4855544    1.2906549 0.0011741766 0.0010954669          860    5.1362053    812.06099    1.0639595 
   91700   0.61070745   -7.4559283    1.2783438 0.0011617083 0.0010937717          862    5.6981318    807.22276    1.0703365 
   91800   0.58314133   -7.4788819     1.282086 0.0011638399 0.0010920405          863     5.669867    805.51291    1.0726085 
   91900    0.6328171   -7.4355329    1.2757766 0.0011568522 0.0010903415          862    5.9498696     805.8107    1.0722121 
   92000   0.63517917   -7.4656245    1.2840561 0.0011630943  0.001088615          859    5.8136142    805.40919    1.0727466 
   92100   0.63749574   -7.5079319    1.2764663 0.0011549641 0.0010869061          858    5.1982134    809.59286    1.0672031 
   92200   0.59259416    -7.491062    1.2890148 0.0011650531 0.0010852077          858    5.2005399     810.4374     1.066091 
   92300   0.62861117   -7.4315404     1.293706 0.0011680263 0.0010835656          860    5.8854962    806.60044    1.0711623 
   92400   0.62572986   -7.4855698    1.3008394 0.0011731957 0.0010819926          861    5.2162905    811.00259     1.065348 
   92500   0.63264227   -7.4572711    1.2856659 0.0011582575 0.0010803396          859    5.7002965    807.48318    1.0699913 
   92600   0.62449631   -7.4729813    1.2855214 0.0011568767 0.0010786884          860    6.0714647    802.27223    1.0769412 
   92700   0.64985805   -7.4622622    1.2781201 0.0011489752 0.0010770204          860    5.7613143     806.4849    1.0713158 
   92800   0.65038838   -7.4605804    1.2767961 0.0011465482 0.0010753259          854    5.7413995    806.82032    1.0708704 
   92900   0.61277325   -7.4944099    1.2704304 0.0011396038 0.0010735848          857    5.7092096    804.80236    1.0735555 
   93000   0.62055007   -7.4632136    1.2727833 0.0011404868 0.0010718733          856    5.4758409    809.09896    1.0678545 
   93100   0.61341271   -7.4248157    1.2853063 0.0011504711 0.0010702046          860    6.0433773    805.06637    1.0732034 
   93200   0.61182571   -7.4694714    1.2785064 0.0011431567 0.0010685649          862    6.1851856    801.07644    1.0785488 
   93300   0.61062096   -7.4579675    1.2802359 0.0011434761 0.0010668963          863    5.1272897    813.55223    1.0620093 
   93400    0.6358786   -7.4616719    1.2703805 0.0011334586 0.0010651726          861    5.5358398     809.1736     1.067756 
   93500   0.63003294   -7.4330233    1.2826865 0.0011432144 0.0010635213          860    6.5018572    800.34543    1.0795339 
   93600   0.65184184    -7.453239    1.2891333 0.0011477327 0.0010618939          861    5.6989668    807.70335    1.0696997 
   93700   0.60440837   -7.4662128    1.2864943 0.0011441607 0.0010603025          861    5.5754164    808.02985    1.0692674 
   93800   0.62481769   -7.4727161    1.2807602 0.0011378466 0.0010586361          858    6.0198031    803.23949    1.0756443 
   93900   0.64078951   -7.4216705    1.2762646 0.0011326452 0.0010569597          860    5.8869121    807.57026    1.0698759 
   94000   0.64159502   -7.4710436    1.2801314 0.0011348683 0.0010553228          855    5.3522422    810.29903     1.066273 
   94100    0.6507427    -7.456406    1.2725813  0.001126976 0.0010536481          857    6.1225794    803.03658    1.0759161 
   94200    0.6193576   -7.4928142     1.279189 0.0011316251 0.0010519849          859    5.6497075    805.55428    1.0725534 
   94300   0.62901158    -7.450426    1.2850641 0.0011356169 0.0010503568          856    5.4086886    811.34332    1.0649006 
   94400   0.65454223   -7.4702108    1.2786377 0.0011287409 0.0010487382          860    5.7759714    805.88515    1.0721131 
   94500    0.6193245    -7.470667     1.285877 0.0011339303 0.0010471079          861    6.0389135    802.68072    1.0763931 
   94600   0.63008002   -7.4810956    1.2847071 0.0011317011 0.0010455179          859    5.1507232    812.18736    1.0637939 
   94700   0.63078545   -7.4579906    1.2866886 0.0011322497 0.0010439103          860    5.6490514    807.70373    1.0696992 
   94800   0.61714631   -7.4744887    1.2746472 0.0011204704 0.0010423008          856    5.7697997    805.31768    1.0728685 
   94900   0.63158345    -7.426617    1.2751766 0.0011197546 0.0010406343          857    5.8516272    807.51088    1.0699546 
   95000   0.65561772   -7.4331457     1.284753 0.0011269763 0.0010390529          858    5.8242043    807.65748    1.0697604 
   95100   0.63053826   -7.4815537    1.2827556  0.001124041 0.0010374615          857    5.7140519    805.76568     1.072272 
   95200     0.610502   -7.4809989    1.2879963 0.0011274478  0.001035869          859    5.5377654    807.27273    1.0702703 
   95300   0.61874871   -7.4033515    1.2887912 0.0011269597 0.0010343118          858    5.8801971    808.60431    1.0685078 
   95400   0.64359671   -7.4679576    1.2693671 0.0011088113 0.0010327156          861    5.5824129    808.18661      1.06906 
   95500   0.60628913   -7.4660489    1.2859682 0.0011221363 0.0010310861          860    5.5898331    807.71399    1.0696856 
   95600   0.60482729   -7.4558417    1.2882252 0.0011229299 0.0010295296          861    5.2462188    811.74454    1.0643743 
   95700   0.64274903   -7.4317575    1.2890843 0.0011225046 0.0010279847          862      5.90947    806.67319    1.0710657 
   95800   0.62337196   -7.4667507    1.2840869 0.0011169858 0.0010264493          859     6.059186     802.5894    1.0765156 
   95900   0.62227673   -7.5102401    1.2993696 0.0011291011  0.001024946          858    5.2682078    808.96156    1.0680359 
   96000   0.64218056   -7.4548763    1.2957601 0.0011247917 0.0010234336          859    5.6710845    807.81859    1.0695471 
   96100   0.62245264   -7.4947833    1.2844776 0.0011138376 0.0010219237          857    5.5764301     806.2748    1.0715949 
   96200   0.61709911   -7.4813296    1.2804031 0.0011091503 0.0010203526          861    5.7567991    805.42244     1.072729 
   96300   0.61936774   -7.4594075    1.2892469 0.0011156515 0.0010187969          857    5.5217677    809.12391    1.0678216 
   96400   0.65823324   -7.4258812    1.2868313  0.001112406 0.0010172853          853    5.8208234    808.45504    1.0687051 
   96500   0.63996446   -7.4831355    1.2784544 0.0011040194 0.0010156983          859     5.665905    806.44352    1.0713707 
   96600   0.61429004   -7.4236876    1.2837492 0.0011074441  0.001014157          857    5.9126077      806.851    1.0708297 
   96700    0.6340284    -7.451705     1.292629 0.0011139512 0.0010126218          861    5.3433066    812.01115    1.0640248 
   96800   0.62374951    -7.432915    1.2933428  0.001113415 0.0010111595          862     6.395439    801.37356    1.0781489 
   96900    0.5955489    -7.511071    1.2917056  0.001110858 0.0010096513          861    5.4153525    806.73744    1.0709804 
   97000   0.60929877   -7.4742538     1.290077 0.0011083136 0.0010081503          860    5.4300798     808.8807    1.0681427 
   97100   0.62844118   -7.4398489    1.2713461 0.0010910969 0.0010065845          858    5.6962099     808.7028    1.0683776 
   97200     0.643848   -7.4355402    1.2569623 0.0010776426   0.00100494          860    5.6030219    809.85825    1.0668534 
   97300   0.62392841   -7.4835848    1.2528872 0.0010730448 0.0010032229          858    5.8802258    803.33552    1.0755157 
   97400   0.63267403   -7.4984245     1.276081 0.0010917873 0.0010016063          860    5.4342851    807.92875    1.0694012 
   97500   0.62825577   -7.4386724    1.2869865 0.0010999885 0.0010000736          857     6.050572    804.44841    1.0740279 
   97600    0.6526751   -7.4568577    1.2962344 0.0011067575 0.00099862004          861    5.5370987    809.25048    1.0676546 
   97700   0.60724336   -7.4854315      1.28558  0.001096537 0.00099713672          862    5.3992652    808.60739    1.0685037 
   97800   0.62947831   -7.4570053      1.28993 0.0010991224 0.00099564016          861    5.9157649    804.93876    1.0733736 
   97900   0.66139001   -7.4396351    1.2914348 0.0010992806 0.00099417206          859    5.5955574    809.74956    1.0669966 
   98000    0.6375091   -7.4573159    1.2679823 0.0010782163 0.00099264728          859    5.9002402    805.16525    1.0730716 
   98100   0.65565578   -7.5091299    1.2723423 0.0010808208 0.00099105541          863    5.5155209    806.45288    1.0713583 
   98200   0.62316994   -7.4330849    1.2671262 0.0010752938 0.00098947028          860    5.5798898    810.29023    1.0662846 
   98300   0.64449799   -7.4497421    1.2832317 0.0010878532 0.00098792238          857    5.5751942    809.11614    1.0678319 
   98400   0.60831851   -7.4426163    1.2926545 0.0010947277 0.00098645257          859    5.6983182    807.89826    1.0694416 
   98500   0.64289443   -7.4474652    1.2941202 0.0010948563 0.00098503507          854    5.8051591     806.8711     1.070803 
   98600   0.60021445   -7.4460734     1.291296  0.001091359 0.00098358885          857    5.9142612     805.4433    1.0727012 
   98700   0.62815581   -7.4606532    1.2945562 0.0010930059 0.00098215044          860    5.3967569    810.33889    1.0662206 
   98800   0.61611282   -7.4408558    1.2891749 0.0010873608 0.00098070747          858    5.6914348    808.38374    1.0687993 
   98900   0.60878031   -7.4715948     1.293334 0.0010897658 0.00097926629          857    5.6832313    806.47227    1.0713326 
   99000   0.60231388   -7.4799407    1.2927439 0.0010881683 0.00097784944          863    5.8475291    803.61978    1.0751353 
   99100   0.61372761   -7.4433587    1.2948238 0.0010888192 0.00097644311          861    5.5339872    809.65958    1.0671152 
   99200   0.65693988   -7.4701975    1.2942722 0.0010872582 0.00097502238          857     5.896046    804.65606    1.0737507 
   99300   0.63399469   -7.4792471    1.2900169 0.0010825922 0.00097362473          856     5.992803     802.8592    1.0761538 
   99400   0.63994151   -7.4520873    1.2894868 0.0010810587 0.00097218177          849    5.4670904    810.33582    1.0662246 
   99500   0.65238894   -7.4923521    1.2824118 0.0010740467 0.00097071439          856    5.4876458     807.6648    1.0697507 
   99600   0.63820081    -7.440755    1.2838029 0.0010741322 0.00096924789          860    6.2577832    802.24126    1.0769828 
   99700   0.64160042    -7.461699    1.2832742  0.001072613 0.00096782951          859    5.8262865    805.86376    1.0721415 
   99800   0.62007512    -7.503597    1.2691534 0.0010597474 0.00096632243          861    5.5060338    806.24609    1.0716331 
   99900   0.63194882   -7.4432826    1.2967823 0.0010817336 0.00096486089          862    5.6843144    808.75555     1.068308 
  100000   0.61242151   -7.4479629     1.290879 0.0010757325 0.00096345729          858    5.5292674    809.52499    1.0672926 
  100100   0.60206582   -7.4598739    1.2786552 0.0010644816 0.00096201241          858    6.0610379    803.00984     1.075952 
  100200   0.64417007   -7.5068339    1.2783854 0.0010631948 0.00096052742          856    5.4194564    807.52293    1.0699387 
  100300   0.64047068   -7.4758307    1.2832091 0.0010661425 0.00095906142          859    5.3171125    810.37232    1.0661766 
  100400   0.62545571   -7.4643852    1.2805412 0.0010628662  0.000957606          859    6.2223717    801.11345    1.0784989 
  100500   0.60529297   -7.4582586    1.2834119  0.001064189 0.00095616821          859    5.9060757     804.6596     1.073746 
  100600   0.63002932   -7.4908508    1.2948172 0.0010725788 0.00095474797          852    5.0552617    812.37571    1.0635473 
  100700   0.62795161    -7.464167    1.2924666 0.0010695685 0.00095337562          855    5.8378169    805.66033    1.0724122 
  100800   0.63767685    -7.434352    1.2962217 0.0010716119 0.00095201402          857    6.0826688    805.24527     1.072965 
  100900   0.63583517   -7.4867774    1.3065963 0.0010791182 0.00095070829          858    5.4431791    808.54345    1.0685882 
  101000   0.62925238   -7.4716125    1.2911809 0.0010653307 0.00094935108          859    5.6226096    807.51192    1.0699532 
  101100   0.59276868   -7.4968427     1.298632 0.0010704187 0.00094796374          863    5.1605942    810.77908    1.0656417 
  101200   0.62107244   -7.4406802    1.2927469 0.0010645149 0.00094662215          862     6.056954    804.19762    1.0743628 
  101300   0.65042132   -7.4556838    1.2839594 0.0010562351 0.00094522345          859    5.5084535     810.0714    1.0665726 
  101400   0.61145354    -7.489402    1.2729474 0.0010461435 0.00094379722          862    5.5954246    806.44909    1.0713634 
  101500   0.61052714     -7.48124    1.2786955 0.0010498321 0.00094231088          859    5.2919242    810.13223    1.0664926 
  101600   0.62254371   -7.4508296    1.2723241 0.0010435729 0.00094085365          863     5.597297    808.62511    1.0684803 
  101700   0.63101135   -7.4292108    1.2655048  0.001036959 0.0009393803          859    6.0526295    805.11298    1.0731413 
  101800   0.62939974   -7.4342883    1.2789843 0.0010469747  0.000937934          861    5.8003983    807.61015    1.0698231 
  101900    0.6047987   -7.4913485    1.2811312  0.001047703 0.00093649852          862    5.4294264    808.10013    1.0691744 
  102000   0.61512663   -7.4550526    1.2932065 0.0010565413 0.00093512368          859    5.8989732    805.17106    1.0730639 
  102100   0.61931763   -7.4379055    1.2971855  0.001058754 0.0009337978          863    5.7040779    808.54685    1.0685837 
  102200   0.63598556   -7.4536736     1.286708 0.0010491748 0.00093242998          860    5.7041524    807.26922    1.0702749 
  102300   0.63570957   -7.4811317    1.2927301 0.0010530548 0.00093109026          861    5.9628499    803.10964    1.0758182 
  102400   0.59847902   -7.4983247    1.2896221 0.0010494971 0.00092973851          856    5.3592367     808.3774    1.0688077 
  102500   0.60273606   -7.4164806    1.2895548 0.0010484185 0.00092839498          859    5.7410107    809.11833     1.067829 
  102600    0.6430556   -7.4669569     1.266422 0.0010286079 0.00092696188          857    5.9285189    804.82631    1.0735236 
  102700   0.62332557   -7.5132959    1.2803601  0.001038916 0.00092553196          861    5.5655798    805.24342    1.0729675 
  102800   0.60485088   -7.4655026    1.2915726 0.0010469946 0.00092416806          858    5.3261991    810.47975    1.0660353 
  102900   0.63145859    -7.465233    1.2894249 0.0010442378 0.00092280315          856    5.6616654    807.23274    1.0703233 
  103000   0.61088195   -7.4616957    1.2803663  0.001035895 0.00092146304          855    5.7634795    806.12509     1.071794 
  103100   0.62738763   -7.4404103     1.290668  0.001043217 0.00092009119          855    5.5040845    810.19788    1.0664061 
  103200   0.60388042   -7.4397428    1.2873753 0.0010395472 0.00091873208          855     5.324586    812.61375    1.0632358 
  103300   0.62089939   -7.4634738    1.2775414 0.0010306078 0.00091735824          859    5.6028673    807.91967    1.0694133 
  103400   0.63276639   -7.5054523     1.262954 0.0010178546 0.00091591049          862    6.0002284    801.16059    1.0784355 
  103500   0.65250251   -7.5019833    1.2864437  0.001035784 0.00091449232          855    5.1673043    811.11792    1.0651965 
  103600   0.64679705    -7.459338    1.2886438 0.0010365539 0.00091318131          856    5.7365197    806.99905    1.0706332 
  103700   0.62039303   -7.4650246    1.2787673 0.0010276176 0.0009118204          860    5.4245028    809.80291    1.0669263 
  103800   0.59265281   -7.4598973    1.2831134 0.0010301168 0.00091044841          860    5.5334286    808.36844    1.0688196 
  103900   0.62424767   -7.4746224    1.2851483 0.0010307574 0.00090909878          858    5.5003304    808.58427    1.0685343 
  104000   0.63484243   -7.4339825     1.283985 0.0010288341 0.00090776626          857    5.7299991    808.52236    1.0686161 
Loop time of 195.016 on 12 procs for 100000 steps with 864 atoms

Performance: 88607.925 tau/day, 512.777 timesteps/s
99.4% CPU use with 12 MPI tasks x no OpenMP threads

MPI task timing breakdown:
Section |  min time  |  avg time  |  max time  |%varavg| %total
---------------------------------------------------------------
Pair    | 9.9396     | 10.989     | 11.972     |  19.4 |  5.63
Neigh   | 0.97879    | 1.0182     | 1.0532     |   2.3 |  0.52
Comm    | 7.3033     | 8.396      | 9.6654     |  24.8 |  4.31
Output  | 2.3895     | 2.3903     | 2.3976     |   0.1 |  1.23
Modify  | 169.69     | 170.11     | 170.55     |   2.1 | 87.23
Other   |            | 2.111      |            |       |  1.08

Nlocal:        72.0000 ave          78 max          68 min
Histogram: 1 2 2 2 0 1 2 0 0 2
Nghost:        1646.25 ave        1662 max        1630 min
Histogram: 1 0 0 2 4 1 1 2 0 1
Neighs:        8874.33 ave       10094 max        7975 min
Histogram: 4 1 0 1 2 0 1 0 1 2
FullNghs:      17749.7 ave       19399 max       16649 min
Histogram: 2 0 4 1 0 3 0 0 1 1

Total # of neighbors = 212996
Ave neighs/atom = 246.52315
Neighbor list builds = 4406
Dangerous builds = 0

#clear
#
#next RN
#
#jump SELF



Total wall time: 0:03:15
