
units lj                  # Use reduced LJ style units
atom_style atomic         # Uncharged point particles
atom_modify map hash      # Needed for indexing of clusters etc
                          # Used to be able to find where atoms are in relation to each other.

# Define a lattice with which to populate the simulation cell. With units
# set to 'lj' the second argument to the lattice command is the reduced
# density rho* and the spacings are multiples of that required to acheive
# that density. Also define a simulation cell called 'box' in lattice units
# and fill it with atoms. Here we're creating a box which is ten lattice
# constants in each direction.
lattice fcc 1.0 spacing 1 1 1                 # All equal sizes - gives the right reduced density.
Lattice spacing in x,y,z = 1.5874011 1.5874011 1.5874011

region box block 0 6 0 6 0 6 units lattice # Defines a region, "box", in lattice units
create_box 1 box                              # Creates a simulation box as specified above,
Created orthogonal box = (0.0000000 0.0000000 0.0000000) to (9.5244063 9.5244063 9.5244063)
  2 by 2 by 3 MPI processor grid
                                              # with one type of atom
create_atoms 1 box                            # Creates particles on lattice points
Created 864 atoms
  using lattice units in orthogonal box = (0.0000000 0.0000000 0.0000000) to (9.5244063 9.5244063 9.5244063)
  create_atoms CPU = 0.001 seconds


# Set the mass of the first (and only) atom type.
mass 1 1.0

# Lennard-Jones interactions between particles, 3.5 sigma cut-off. Apply
# long range tail corrections to energy and pressure and set all coefficients
# to unity since we work in reduced units here. Note that this doesn't shift
# the potential such that it goes to zero at the cutoff. That would require
# pair_modify('shift', 'yes').
pair_style lj/cut  3.5      # non-GPU version
pair_modify tail  yes
pair_coeff 1  1  1.0  1.0   # Intearaction between 1 and 1 set with epsilon = 1 and sigma = 1

write_data data.*
System init for write_data ...
Neighbor list info ...
  update every 1 steps, delay 10 steps, check yes
  max neighbors/atom: 2000, page size: 100000
  master list distance cutoff = 3.8
  ghost atom cutoff = 3.8
  binsize = 1.9, bins = 6 6 6
  1 neighbor lists, perpetual/occasional/extra = 1 0 0
  (1) pair lj/cut, perpetual
      attributes: half, newton on
      pair build: half/bin/atomonly/newton
      stencil: half/bin/3d
      bin: standard

#############################
#   M E L T   S Y S T E M   #
#############################

velocity all create 2.4 2750902 mom yes dist gaussian # Assign velocities
                                                    # Temperature 2.4, random number seed, zero linear momentum
						                                                        # Gaussian distribution

timestep 0.002   # simulation timestep
thermo 100       # output thermodynamic data every 100 steps

# Define a fix  in this case with index 1 applied to all
# particles in the simulation. This fix is for simulations
# in the anisotropic NPT ensemble. Note that we use the MTK
# correction.
fix 1 all npt temp 2.4 2.4 0.1 iso 5.68 5.68 0.5 mtk yes tchain 5 pchain 5 # Use NPT ensemble
                                                                         # Set temperature and pressure and damping
                                                                         # Numbers of thermostats in chain and in barostat
run 1000         # run for 10000 steps
Per MPI rank memory allocation (min/avg/max) = 3.633 | 3.633 | 3.634 Mbytes
Step Temp E_pair E_mol TotEng Press Volume 
       0          2.4   -8.3859253            0    -4.790092     -2.24275          864 
     100    1.3007594   -6.4407842            0   -4.4919034    5.3582762    891.69205 
     200    1.5828213   -6.0796178            0   -3.7081338    6.4338598    907.46239 
     300    1.7629056     -5.73851            0   -3.0972122    5.5953229    954.02439 
     400    1.8733232   -5.2785237            0   -2.4717912    6.0585808    994.36537 
     500      2.02574   -4.9360708            0   -1.9009777    5.7478153    1042.8978 
     600    2.2112838   -4.6895875            0   -1.3765009    5.7138268    1079.0368 
     700    2.3146746   -4.4629638            0  -0.99497044    5.6088298    1118.0222 
     800    2.4734008     -4.39503            0   -0.6892229    5.7937797    1123.7282 
     900    2.4206618   -4.2767239            0  -0.64993368    5.5531987    1146.9555 
    1000    2.3618098   -4.2459295            0  -0.70731524    5.7000582    1143.3852 
Loop time of 0.223467 on 12 procs for 1000 steps with 864 atoms

Performance: 773269.302 tau/day, 4474.938 timesteps/s
99.5% CPU use with 12 MPI tasks x no OpenMP threads

MPI task timing breakdown:
Section |  min time  |  avg time  |  max time  |%varavg| %total
---------------------------------------------------------------
Pair    | 0.068507   | 0.083423   | 0.13062    |   6.7 | 37.33
Neigh   | 0.012075   | 0.013756   | 0.019631   |   2.1 |  6.16
Comm    | 0.053354   | 0.10661    | 0.12302    |   6.8 | 47.71
Output  | 0.00020792 | 0.00021755 | 0.00028898 |   0.0 |  0.10
Modify  | 0.01653    | 0.017614   | 0.018444   |   0.3 |  7.88
Other   |            | 0.001844   |            |       |  0.83

Nlocal:        72.0000 ave          80 max          66 min
Histogram: 2 1 2 2 1 0 2 0 0 2
Nghost:        1314.75 ave        1327 max        1295 min
Histogram: 1 0 0 2 3 0 0 1 2 3
Neighs:        6211.67 ave        7136 max        5326 min
Histogram: 2 0 0 2 1 4 1 0 0 2

Total # of neighbors = 74540
Ave neighs/atom = 86.273148
Neighbor list builds = 80
Dangerous builds = 2

# Equilibrate just above the melting temperature to avoid step fn in T

fix 1 all npt temp 1.25 1.25 0.1 iso 5.68 5.68 0.5 mtk yes tchain 5 pchain 5
run 1000
Per MPI rank memory allocation (min/avg/max) = 3.634 | 3.634 | 3.634 Mbytes
Step Temp E_pair E_mol TotEng Press Volume 
    1000    2.3618098   -4.2459295            0  -0.70731524    5.7000582    1143.3852 
    1100    1.8617945   -4.5967525            0    -1.807293    5.9593679    1083.5566 
    1200      1.66126   -5.0091582            0   -2.5201524    5.9308167    1028.0056 
    1300    1.4533368   -5.3154554            0   -3.1379734    5.5185254    997.93023 
    1400    1.3100587   -5.5224566            0    -3.559643    5.2858775     978.0358 
    1500    1.3306301   -5.7450087            0   -3.7513736    5.2687861    956.68836 
    1600    1.2302857    -5.777427            0   -3.9341343     5.385203    950.58576 
    1700    1.2545134   -5.8251615            0   -3.9455694    5.6370291    940.07281 
    1800    1.2669685   -5.8434457            0   -3.9451925    6.1076728    931.13358 
    1900    1.2975362   -5.8185374            0   -3.8744858    5.5765884    942.23221 
    2000    1.2225624   -5.8503078            0   -4.0185867    5.1330896    948.19804 
Loop time of 0.171328 on 12 procs for 1000 steps with 864 atoms

Performance: 1008590.413 tau/day, 5836.750 timesteps/s
99.8% CPU use with 12 MPI tasks x no OpenMP threads

MPI task timing breakdown:
Section |  min time  |  avg time  |  max time  |%varavg| %total
---------------------------------------------------------------
Pair    | 0.070235   | 0.078937   | 0.091362   |   2.2 | 46.07
Neigh   | 0.0099044  | 0.010797   | 0.0119     |   0.6 |  6.30
Comm    | 0.051389   | 0.064891   | 0.07416    |   2.6 | 37.87
Output  | 0.00018174 | 0.00018992 | 0.00023387 |   0.0 |  0.11
Modify  | 0.014325   | 0.014674   | 0.015006   |   0.2 |  8.57
Other   |            | 0.001839   |            |       |  1.07

Nlocal:        72.0000 ave          79 max          65 min
Histogram: 1 1 0 4 0 1 1 3 0 1
Nghost:        1466.08 ave        1476 max        1447 min
Histogram: 1 1 0 0 2 0 0 4 1 3
Neighs:        7466.67 ave        8131 max        6694 min
Histogram: 1 0 2 0 3 1 3 0 0 2

Total # of neighbors = 89600
Ave neighs/atom = 103.70370
Neighbor list builds = 67
Dangerous builds = 0


# Small amount of linear quench

fix 1 all npt temp 1.25 ${temp} 0.1 iso 5.68 5.68 0.5 mtk yes tchain 5 pchain 5
fix 1 all npt temp 1.25 0.93 0.1 iso 5.68 5.68 0.5 mtk yes tchain 5 pchain 5
run 2000
Per MPI rank memory allocation (min/avg/max) = 3.634 | 3.634 | 3.634 Mbytes
Step Temp E_pair E_mol TotEng Press Volume 
    2000    1.2225624   -5.8503078            0   -4.0185867    5.1330896    948.19804 
    2100    1.2566025   -5.8604917            0   -3.9777694    5.4211761    941.49071 
    2200    1.2314982   -5.9038482            0    -4.058739    5.8329504    929.22846 
    2300    1.1957066   -5.9068822            0   -4.1153982    6.3003525    920.65531 
    2400    1.1931673   -5.9521893            0   -4.1645099    5.9477597    922.56084 
    2500    1.1512651   -5.9504759            0   -4.2255769    5.6600169    925.71792 
    2600    1.1188728   -5.9909464            0   -4.3145797    5.6618562    921.89829 
    2700    1.1177169   -5.9849036            0   -4.3102686    5.6678028    922.20174 
    2800    1.1021151   -6.0576728            0   -4.4064135    5.7364887    915.95528 
    2900    1.1008579   -6.0360048            0   -4.3866291      5.86363     914.7382 
    3000    1.0911215   -6.0692241            0   -4.4344361    6.0435807    909.74477 
    3100    1.1246617   -6.1429779            0   -4.4579379    5.9010135    904.83746 
    3200    1.0218725   -6.1320691            0   -4.6010345    5.7012741    908.97679 
    3300   0.98587782   -6.1259924            0   -4.6488873    5.6467841    909.37182 
    3400    1.0603579   -6.1316338            0   -4.5429379    5.9949841    904.77281 
    3500     1.019598   -6.1189792            0   -4.5913524    6.4431268    898.48562 
    3600   0.98644181   -6.1300445            0   -4.6520944    6.5984271    893.40383 
    3700   0.97946152   -6.2131346            0   -4.7456428    5.8970044    897.65839 
    3800   0.95816742   -6.2830112            0   -4.8474235    5.4956417    897.46181 
    3900   0.95722273   -6.3866179            0   -4.9524457    5.2399603    894.15454 
    4000   0.91125189   -6.3771073            0   -5.0118115    5.4962991    890.61841 
Loop time of 0.341215 on 12 procs for 2000 steps with 864 atoms

Performance: 1012851.652 tau/day, 5861.410 timesteps/s
99.9% CPU use with 12 MPI tasks x no OpenMP threads

MPI task timing breakdown:
Section |  min time  |  avg time  |  max time  |%varavg| %total
---------------------------------------------------------------
Pair    | 0.15381    | 0.16514    | 0.18423    |   2.3 | 48.40
Neigh   | 0.017975   | 0.018955   | 0.020804   |   0.6 |  5.56
Comm    | 0.10277    | 0.12336    | 0.13487    |   2.8 | 36.15
Output  | 0.00036078 | 0.00037848 | 0.00046747 |   0.0 |  0.11
Modify  | 0.028487   | 0.029169   | 0.029761   |   0.2 |  8.55
Other   |            | 0.004214   |            |       |  1.23

Nlocal:        72.0000 ave          77 max          66 min
Histogram: 1 2 2 0 0 1 1 1 1 3
Nghost:        1546.42 ave        1562 max        1529 min
Histogram: 2 0 2 0 1 2 1 1 0 3
Neighs:        8005.58 ave        9206 max        7343 min
Histogram: 2 3 0 4 0 1 0 1 0 1

Total # of neighbors = 96067
Ave neighs/atom = 111.18866
Neighbor list builds = 117
Dangerous builds = 0

#############################
# F R E E Z E  S Y S T E M  #
#############################

# Define solid atoms. This closely follows ten Wolde  Ruiz-Montero and Frenkel  Faraday Discuss  1996  104  93-110
# Compute components of the per-atom q6 vector
compute q6 all orientorder/atom degrees 1 6 components 6 nnn NULL cutoff 1.3 # compute the Q6 parameter.
                                                                             # Use all neighbours within 1.3 unit cell.

# get number of connections
compute coord_number all coord/atom orientorder q6 0.5

# An atom is solid if it has 8 or more connections (of a possible 14)
variable is_solid atom c_coord_number>=8
group solid dynamic all var is_solid    # Must be dynamic to update
dynamic group solid defined

# do clustering
compute cluster solid cluster/atom 1.3 # Create a cluster where all atoms within are solid and max 1.3 units from another member

# define chunks one chunk per cluster
compute clus_chunks solid chunk/atom c_cluster nchunk every compress yes  # Says which atoms are in which chunk

# count the size of each chunk
compute size_chunks solid property/chunk clus_chunks count


# Find the maximum entry in the vector of chunk sizes
variable max_n equal max(c_size_chunks)


# Thermo style which includes this variable
# thermo_style custom step temp pe vol v_max_n

thermo ${N}  # Print the thermo information every 100 steps
thermo 100  

# Reset the npt fix at a lower temperature (below freezing)

compute myRDF all rdf 100
fix 2 all ave/time 1 50 100 c_myRDF[*] file pcf.rdf mode vector


compute msd all msd com yes
variable twopoint equal c_msd[4]/6/(step*dt+1.0e-6)
fix 9 all vector 10 c_msd[4]
variable fit equal slope(f_9)/6/(10*dt)
thermo_style custom step temp pe c_msd[4] v_twopoint v_fit v_max_n press vol density


fix 1  all npt temp  ${temp} ${temp}  0.1  iso  5.68  5.68  0.5  mtk yes tchain  5  pchain  5
fix 1  all npt temp  0.93 ${temp}  0.1  iso  5.68  5.68  0.5  mtk yes tchain  5  pchain  5
fix 1  all npt temp  0.93 0.93  0.1  iso  5.68  5.68  0.5  mtk yes tchain  5  pchain  5

dump dmp2 all dcd ${N} traj.dcd
dump dmp2 all dcd 100 traj.dcd
dump dmp3 all dcd ${N} traj_unwrap.dcd
dump dmp3 all dcd 100 traj_unwrap.dcd
dump_modify dmp3 unwrap yes


# fix rnuntil all halt ${N} v_max_n >= 3980 error soft message no   # Stop when solidified

run 100000 # 5000000  # Run for this many steps
Neighbor list info ...
  update every 1 steps, delay 10 steps, check yes
  max neighbors/atom: 2000, page size: 100000
  master list distance cutoff = 3.8
  ghost atom cutoff = 3.8
  binsize = 1.9, bins = 6 6 6
  5 neighbor lists, perpetual/occasional/extra = 1 4 0
  (1) pair lj/cut, perpetual
      attributes: half, newton on
      pair build: half/bin/atomonly/newton
      stencil: half/bin/3d
      bin: standard
  (2) compute orientorder/atom, occasional
      attributes: full, newton on
      pair build: full/bin/atomonly
      stencil: full/bin/3d
      bin: standard
  (3) compute coord/atom, occasional
      attributes: full, newton on
      pair build: full/bin/atomonly
      stencil: full/bin/3d
      bin: standard
  (4) compute cluster/atom, occasional
      attributes: full, newton on
      pair build: full/bin/atomonly
      stencil: full/bin/3d
      bin: standard
  (5) compute rdf, occasional, copy from (1)
      attributes: half, newton on
      pair build: copy
      stencil: none
      bin: none
Per MPI rank memory allocation (min/avg/max) = 9.697 | 9.703 | 9.706 Mbytes
Step Temp PotEng c_msd[4] v_twopoint v_fit v_max_n Press Volume Density 
    4000   0.91125189   -6.3771073 1.5859391e-30 3.3040394e-32 8.3333333e+20            3    5.4962991    890.61841   0.97011244 
    4100   0.87523134   -6.3955691  0.046461122 0.00094433162  0.041943011            3    5.4071719    888.66668   0.97224304 
    4200   0.90439206   -6.4189104  0.078216653 0.0015519175  0.035263037            2     5.148601    891.61878     0.969024 
    4300   0.92191091   -6.3482275  0.097528666 0.0018900902  0.027893838            2    5.4382496    893.49885   0.96698501 
    4400   0.88885606   -6.3465963   0.11744001 0.0022242424  0.023715377            3     5.421582    892.69586   0.96785483 
    4500    0.8886464   -6.3846149   0.14185592 0.0026269612  0.021791075            3    5.5584904     888.1804   0.97277535 
    4600    0.9711628   -6.3929758   0.16877988 0.0030576061   0.02127198            5    5.6199519    887.52035    0.9734988 
    4700   0.92521466    -6.404511   0.20603059 0.0036530242  0.021613634            2    5.4652392    889.43763   0.97140033 
    4800   0.91319559    -6.374079   0.23956211  0.004159064   0.02245374            1    5.6195994    887.24208   0.97380412 
    4900   0.96583362   -6.3746196   0.25501178 0.0043369346  0.022675803            2    5.4680438    892.26673   0.96832031 
    5000   0.95632808   -6.3517868   0.27443842 0.0045739732  0.022374611            1    6.0075017     885.3335   0.97590343 
    5100    0.9230207    -6.416668   0.29364581 0.0047981337  0.021890723            7    5.9236731    880.27772   0.98150843 
    5200   0.96683512     -6.42383   0.32274429 0.0051721836  0.021568008            4     6.051099    878.99736   0.98293811 
    5300   0.97422142   -6.3610922   0.35219385 0.0055376387  0.021484365            3    6.0851021     883.0884   0.97838449 
    5400   0.97075382   -6.4055773   0.37709655 0.0058193907    0.0215174            3    6.0524845    880.11637   0.98168837 
    5500   0.89883514   -6.3801737   0.39097279 0.0059238297  0.021368229            3    6.3960575    876.22191   0.98605158 
    5600   0.94282874    -6.413395   0.40519063 0.0060296219  0.021042195            2    5.7962886    882.71604   0.97879722 
    5700   0.90589625    -6.438493   0.41692784 0.0060954357  0.020584607            4    5.2462545    889.52389   0.97130613 
    5800    0.8873597   -6.3876308   0.43686651 0.0062768172   0.02012129            4    5.4786587    888.91849   0.97196764 
    5900   0.90431552   -6.3814611   0.45607918 0.0064417957  0.019747653            8     5.666999    885.98706   0.97518354 
    6000   0.91891729    -6.394641   0.46880929 0.0065112396  0.019378801            4    5.4218358     890.2624   0.97050039 
    6100   0.89384734   -6.4243597   0.48862316 0.0066751793   0.01901812            4    5.1457239    890.32162   0.97043583 
    6200    0.9076139   -6.3992765   0.50504987 0.0067883042  0.018744773            6    5.7308485    884.36972   0.97696696 
    6300   0.95656566   -6.3813844   0.51762506 0.0068468917  0.018442152            5    5.8425079    884.82809   0.97646086 
    6400   0.92508731   -6.3629152   0.54505805 0.0070971095  0.018190263            5    5.9180352    884.70178   0.97660028 
    6500   0.95315194   -6.3970269   0.54811506 0.0070271156  0.017973201            7     5.713777    885.38595   0.97584561 
    6600   0.88641445   -6.3735251   0.56379762 0.0071186563  0.017673182            3    5.6428054    887.33898   0.97369779 
    6700   0.93185933   -6.3610282   0.59113474 0.0073524215  0.017468108            2    6.0352028    882.84618   0.97865292 
    6800   0.93961139   -6.3980123   0.61118837  0.007490053  0.017308452            4    5.6381183    886.83407   0.97425216 
    6900   0.90730072   -6.4461741   0.63358891 0.0076520394  0.017181542            4    5.4922064    884.82545   0.97646378 
    7000   0.89850786   -6.4362065   0.66861588 0.0079597123    0.0171245            8       5.5906    883.07202   0.97840264 
    7100   0.92123154   -6.3852132   0.69512732 0.0081587707  0.017132434            5    5.5723698    888.14376   0.97281549 
    7200   0.95030012   -6.4016795   0.72038137 0.0083377468  0.017152776            9    5.2119661    893.48091   0.96700444 
    7300   0.97123885   -6.3602231   0.73351415 0.0083734486   0.01717534            7    5.4133152    893.74222    0.9667217 
    7400   0.93633103   -6.3497246   0.74203745  0.008356277   0.01714309            3    5.8789738    887.38895   0.97364295 
    7500   0.92747186   -6.3813169   0.76807979 0.0085342193  0.017107843            5    5.9304047    883.28206   0.97816999 
    7600    0.9130959   -6.4224203   0.77840664   0.00853516  0.017073111            6    5.7057798    883.28763   0.97816382 
    7700   0.92486126     -6.38011   0.80087154 0.0086674403  0.017014655            2    5.4280227    890.56763   0.97016776 
    7800   0.94119759   -6.3409526   0.83098147 0.0088780065  0.017003966            1    5.8120561    888.18029   0.97277547 
    7900   0.92435179    -6.311835   0.84516349 0.0089152262  0.016993263            1    5.8520402    889.01877     0.971858 
    8000   0.93531586   -6.3522551   0.86448836 0.0090050865  0.016976595            2    6.0302964    883.88847    0.9774989 
    8100    0.9315442   -6.3938841   0.87192907 0.0089704631  0.016945279            2     6.133182    878.76444   0.98319864 
    8200   0.96386965   -6.4057325   0.88054585 0.0089486362  0.016880398            3    5.8660685     882.5475   0.97898414 
    8300   0.94699597   -6.3654291   0.88631697 0.0088987642  0.016782968            4     5.741555    887.73483    0.9732636 
    8400   0.95541223   -6.3885822   0.89310559 0.0088601739  0.016672543            3    5.6292935    887.07422    0.9739884 
    8500    0.9083364   -6.3578673   0.90249589 0.0088479984  0.016541166            3    5.9293285     884.5529   0.97676465 
    8600   0.95412826   -6.4051214    0.9309712 0.0090210383  0.016426686            3    5.7686674    884.12382   0.97723869 
    8700   0.89982348     -6.41319   0.96361029 0.0092299831  0.016356042            3    5.8679508    881.32047   0.98034714 
    8800   0.95410324   -6.4115201   0.98124452 0.0092920877  0.016299262            6    6.0763583    878.05268   0.98399563 
    8900   0.97105039   -6.4261204    1.0127786 0.0094829448  0.016263789            6    5.7255009    883.80246   0.97759402 
    9000   0.91707675   -6.4192565     1.032374  0.009559018  0.016242066            9    5.8608634    881.15671   0.98052933 
    9100   0.97501738   -6.3905843    1.0598881 0.0097059341  0.016228987           14    5.4484446     889.8828   0.97091437 
    9200   0.94102069   -6.3913977    1.0895489 0.0098691014  0.016231646            7    5.2812426    892.81726   0.96772323 
    9300   0.91830349   -6.3855756    1.1060648 0.0099109745  0.016234828            4    5.5759816    888.45293   0.97247696 
    9400   0.91766587   -6.4110587    1.1276564  0.009996953  0.016244053            4    5.8559872    881.68058   0.97994673 
    9500   0.92743184   -6.4050707    1.1524592  0.010109291  0.016258227            3    5.9428902    880.78116   0.98094741 
    9600   0.94895597   -6.4560647    1.1518675 0.0099988492  0.016257253           11    5.4610323    884.25434   0.97709445 
    9700   0.89542377   -6.4558309    1.1737367  0.010083648  0.016244178            6    5.5305569    883.35438    0.9780899 
    9800   0.90327231   -6.4169556    1.1891209  0.010111572  0.016222842           11    5.6177153    884.50374   0.97681893 
    9900   0.94628546   -6.3719562    1.1938878   0.01004956  0.016194698            7     5.579279    889.31589    0.9715333 
   10000   0.92859803   -6.4154753    1.2144331  0.010120276  0.016156872            3    5.4479269    888.76829   0.97213189 
   10100   0.95151861   -6.4204109    1.2202042  0.010067691   0.01612411            8    5.4963711    887.45165   0.97357416 
   10200     0.920247   -6.4192571    1.2423691  0.010150074  0.016073862            7    5.5719468    884.96179   0.97631334 
   10300   0.91630867   -6.4844845    1.2688364  0.010265666  0.016045962            5     5.602874    880.39729   0.98137512 
   10400     0.893963    -6.387455    1.2867943  0.010310852  0.016025264            3     5.839875    883.21893   0.97823991 
   10500   0.95190259    -6.404924    1.2991223  0.010310494  0.015997774            3    5.5426562    888.22452   0.97272703 
   10600   0.94154487    -6.412617    1.3147457   0.01033605  0.015968094            4    5.1800125    892.03585   0.96857094 
   10700   0.93190257   -6.4115242    1.3173372  0.010259635  0.015921116            5    4.8712728    897.06852   0.96313713 
   10800   0.88269854   -6.4156643    1.3417148  0.010352737  0.015874679            3    5.3696467    888.81114   0.97208502 
   10900   0.93517214   -6.4013366    1.3588183  0.010388519  0.015837624            5    5.4311527    889.04482   0.97182952 
   11000   0.90754044   -6.3803982    1.3874618  0.010511074  0.015808191            3    5.6031964    888.75577   0.97214559 
   11100     0.913109   -6.4640973    1.3959475  0.010480086  0.015781354            2    5.1693279    887.35799   0.97367693 
   11200   0.89577033   -6.3885751    1.4135223  0.010517279  0.015746993            5    5.5682976    887.81727   0.97317323 
   11300   0.93038016   -6.4096831    1.4243631  0.010504152  0.015715762            2    5.2762549     890.4918   0.97025038 
   11400   0.90969385   -6.4208891    1.4507878  0.010605174  0.015685469            5    5.4058946    887.89825   0.97308448 
   11500   0.91440226   -6.4703315     1.481998  0.010739115  0.015664025            4    5.0895522    888.84522   0.97204775 
   11600   0.94754755   -6.4101514    1.4997223  0.010773867  0.015649117            2     5.508775    887.94481   0.97303345 
   11700   0.88561401   -6.3715543    1.5110435  0.010762418  0.015634648            4    5.9124646    883.46378   0.97796878 
   11800   0.94712025   -6.3396059    1.5468428   0.01092403  0.015628099            3    5.7713992    889.40054   0.97144083 
   11900   0.95911611   -6.3470718    1.5603604  0.010926893   0.01562588            3    6.0330437    885.06661   0.97619771 
   12000   0.96310239   -6.3936133    1.5753689  0.010940061   0.01562159            4    6.1144232    880.36987   0.98140569 
   12100    0.9480082   -6.3671372    1.6073722  0.011070056  0.015622642            3    6.1115041     881.6296   0.98000339 
   12200    0.9562596   -6.2881712    1.6561431  0.011312453  0.015643276            8    6.2377521    886.12773   0.97502873 
   12300    0.9357431   -6.3882085    1.6856211  0.011420196  0.015672541            6    5.6708081     887.0248   0.97404266 
   12400   0.94306047   -6.3494037    1.7024627  0.011441281  0.015700938            8    5.8804544    886.98875   0.97408225 
   12500    1.0017559    -6.324351    1.7015129  0.011343419  0.015725627            6    6.1681867    885.14443   0.97611188 
   12600   0.91031832   -6.3343465     1.696574  0.011220727  0.015731424            5    5.9318584    885.69285   0.97550748 
   12700   0.95178451   -6.3880976    1.6864247  0.011065778  0.015716468           16    5.8055159    885.20598   0.97604401 
   12800    0.9282446   -6.4141335    1.6921171  0.011016387  0.015686778            6    5.6863498    884.30829   0.97703483 
   12900    0.9531782   -6.3631696    1.7455125   0.01127592  0.015664904           11     5.658654    889.42881   0.97140995 
   13000   0.96638513    -6.432979    1.7824093    0.0114257  0.015664439            3    5.2466339    890.60911   0.97012257 
   13100   0.92855307   -6.4233907     1.791562  0.011396704  0.015661558            5    5.2057709    890.75278    0.9699661 
   13200   0.91320981   -6.3134469    1.8250449  0.011521748  0.015661138            3    5.4325311    896.11312   0.96416399 
   13300   0.95516544   -6.3660339    1.8636012  0.011676699   0.01567133            5    5.5059561    891.55144   0.96909719 
   13400   0.92990876   -6.4006877    1.8699892  0.011629286  0.015684317            3    5.3126757    891.59696   0.96904772 
   13500   0.88228185    -6.419017    1.8781762   0.01159368  0.015684295            6    5.5279087    886.07656   0.97508505 
   13600    0.8898592    -6.361253     1.886498  0.011559424  0.015683717            7    5.9358125    883.50141   0.97792713 
   13700   0.98396016   -6.4319823    1.9237169  0.011701441  0.015688553            8    5.6620674     883.5892   0.97782997 
   13800   0.89820425   -6.3874493    1.9504874  0.011778305  0.015697822            3    5.9792356    880.98955   0.98071537 
   13900   0.91861151   -6.4011672    1.9583865  0.011740926  0.015707216            6    5.4525321    888.89142   0.97199723 
   14000   0.91016275   -6.3841126    1.9831368  0.011804386  0.015711196            8    5.4381823     890.4004   0.97034997 
   14100   0.89184531   -6.4552079    1.9657822  0.011618098   0.01570794            5    5.6601358    881.22021   0.98045868 
   14200   0.94843792   -6.4535147    1.9861372  0.011655734  0.015694454            3    5.5195033    883.97455    0.9774037 
   14300   0.94565045   -6.4341984    2.0051972  0.011685298  0.015688018            9    5.8149239     881.4537   0.98019895 
   14400    0.9406572   -6.4029247    2.0067789  0.011613303   0.01567956            3    6.1677714    877.86126   0.98421019 
   14500   0.98262833   -6.4410466    2.0175232   0.01159496  0.015664679            9    6.0130217    877.36122   0.98477113 
   14600   0.89442943   -6.4033226    2.0425362  0.011658311  0.015651458            8    6.0379551    879.69026   0.98216388 
   14700   0.96166315   -6.4317948    2.0162132   0.01142978  0.015624737            7     5.927352    879.59415    0.9822712 
   14800   0.97118582   -6.4286419    2.0409516  0.011491844  0.015597129            4    5.7554112    882.99623   0.97848662 
   14900   0.89515162   -6.4137263    2.0787903  0.011626343  0.015572755            2    5.8604869    881.15315   0.98053329 
   15000   0.99350423   -6.4802867    2.0803315  0.011557397  0.015550434           17    5.4155366    883.80768   0.97758825 
   15100   0.94236281    -6.444744    2.1009252  0.011594509  0.015527445           14    5.7276694    880.97897   0.98072716 
   15200   0.91574273   -6.4806895     2.105357  0.011542527  0.015501016            6    5.7537422    877.75569   0.98432856 
   15300   0.94645423   -6.4272829    2.1368645  0.011638695  0.015477206            5    5.5424066    886.16208   0.97499094 
   15400    0.9551232   -6.4173539    2.1573551  0.011673999   0.01545468            7    5.5689212    886.19058   0.97495959 
   15500   0.88673059   -6.4132883    2.1701177  0.011667299  0.015433223            6    5.8289314     881.6358    0.9799965 
   15600   0.91036364   -6.4141261     2.215851  0.011836811  0.015417602            5         5.63    885.37844    0.9758539 
   15700   0.89929133   -6.4098024    2.2501418  0.011943428   0.01541023            6    5.3386487    890.01529   0.97076984 
   15800   0.90224982   -6.4941418     2.257667  0.011907526  0.015402679            4    5.5335523    880.52698   0.98123058 
   15900    0.9021973   -6.4549499     2.279781  0.011948538  0.015397126            2    5.3946743    885.83233   0.97535388 
   16000   0.96974279    -6.458928    2.2860363  0.011906438  0.015388732            3    5.2555492    887.90514   0.97307693 
   16100   0.91297889   -6.4416533    2.2688996  0.011743787  0.015371126            6    5.6794987    881.61851   0.98001572 
   16200   0.91131041   -6.4727141    2.2998845  0.011830681  0.015351816            7    5.5455913    881.88698   0.97971738 
   16300   0.93884631   -6.4678196    2.3406004   0.01196626  0.015339742            4    5.3755732    885.12399   0.97613443 
   16400   0.93664894   -6.3756372    2.3609476  0.011996684  0.015332638            4    5.7378352    886.24079   0.97490435 
   16500   0.87722515   -6.3831955    2.3706827  0.011973145  0.015324613            3     6.058544    880.02889   0.98178595 
   16600   0.93446737   -6.4335458    2.4139748  0.012118347   0.01531977            2    5.6456121    883.52207   0.97790426 
   16700    0.9314076   -6.4069047    2.4507243  0.012229163  0.015323114            4    5.8840438     881.6931   0.97993282 
   16800   0.91792041   -6.3843061    2.4376186  0.012091362  0.015324204            2    6.0575231    880.91847   0.98079452 
   16900   0.99421082    -6.410371    2.4787104  0.012222438  0.015322315            2    5.4456001    888.64262   0.97226937 
   17000   0.95125143   -6.4286147    2.4876642  0.012194432  0.015323934           11    5.7406596    881.93495   0.97966409 
   17100    0.9469784   -6.4705886    2.5321221  0.012339776  0.015327587           12    5.5103228    882.66734   0.97885122 
   17200    0.9366517   -6.3783625    2.5083995  0.012153098  0.015329141            3    5.9605977    883.00451   0.97847745 
   17300   0.90959821    -6.393655    2.5316082  0.012194644   0.01532382            5    5.7924958    882.89832   0.97859514 
   17400   0.94474162   -6.4367607    2.5510491  0.012217668  0.015320516            2    5.6076005     883.0388   0.97843945 
   17500   0.91682875   -6.4027303    2.5588928  0.012185203  0.015316622            2    5.6244404    885.90598   0.97527279 
   17600   0.92261419   -6.3982106    2.5657979  0.012148664  0.015306697            2     5.712754    884.96121   0.97631398 
   17700   0.89706859   -6.4329829    2.5766985  0.012131349   0.01529535            1    5.7723271    880.22032   0.98157244 
   17800   0.92237434   -6.3818141    2.6123568  0.012230134    0.0152889            6    6.3785257    876.17084   0.98610905 
   17900   0.94661247   -6.3139243    2.6265431  0.012227854  0.015285634            3    6.5702775    879.07328   0.98285321 
   18000   0.96715297   -6.3604956    2.6345917  0.012197184  0.015281098            4    5.8093774    887.94692   0.97303114 
   18100   0.92864624   -6.4079898    2.6525187  0.012212332  0.015271723            1    5.7827563    884.30203   0.97704174 
   18200   0.98394944   -6.4694707     2.675942  0.012252481  0.015264726            3    5.5713303    883.21175   0.97824786 
   18300   0.86632053   -6.3757584    2.6970152   0.01228149   0.01526026            8    5.9977137    882.31946   0.97923716 
   18400   0.93066144   -6.3898653    2.6981751  0.012219996  0.015250882            4    5.4866533    889.71196    0.9711008 
   18500   0.95784522   -6.3974193    2.7160242  0.012234343  0.015240503            3    5.3440931     891.3577   0.96930784 
   18600   0.93618629   -6.4609562    2.7193587  0.012183506  0.015228693            7    5.5179278    883.27992   0.97817235 
   18700   0.91606425   -6.4065774    2.7517637  0.012262761  0.015216661            4     5.488293    887.08802   0.97397325 
   18800   0.93398178   -6.4156255    2.7941102   0.01238524  0.015209823            4    5.3929313    889.34449   0.97150205 
   18900   0.91230603   -6.4188612    2.8182318  0.012426066  0.015206137           10     5.243451    890.93061    0.9697725 
   19000   0.96242674    -6.385086     2.830776  0.012415684  0.015203269            3    5.4435256    890.98639   0.96971178 
   19100   0.93734837   -6.3822102    2.8424491   0.01240161  0.015199605            5    5.7585916    885.79917   0.97539039 
   19200   0.94334931   -6.3824271    2.8478315  0.012360379  0.015194842            3    6.0093342    883.26312   0.97819096 
   19300   0.87659374    -6.351777       2.8878  0.012468912   0.01519066            4    5.6690908     888.8159   0.97207982 
   19400   0.97199793   -6.3976365    2.9067179  0.012485901  0.015189044            2    5.5610223    888.18888   0.97276607 
   19500   0.91631621   -6.4179695    2.8900325  0.012350566  0.015183378            1    5.9965832    878.97841   0.98295929 
   19600   0.95942812   -6.4360935    2.9258352  0.012439775  0.015176154            2    5.7565863    882.08084   0.97950206 
   19700   0.94044509   -6.3805598    2.9505867  0.012481331  0.015173516            3     5.825251    885.70947   0.97548917 
   19800   0.90759426   -6.4103091    2.9746667  0.012519641  0.015171772            2    5.6526481    885.16269   0.97609175 
   19900   0.94799559   -6.4110398    2.9913662  0.012526659  0.015169145            3    5.3760121    888.66954   0.97223991 
   20000   0.89354869   -6.3826993    3.0443786   0.01268491  0.015168793            2    5.2491878     893.3164   0.96718251 
   20100   0.97115139   -6.4553065    3.0620024  0.012694869  0.015172115            6    5.1462453    889.80651   0.97099762 
   20200   0.91956025   -6.4623634    3.0743835    0.0126831  0.015173733            6     5.366225    884.44366   0.97688529 
   20300   0.95320476   -6.4371917    3.1383964    0.0128834  0.015180111            5    5.3866965    886.71843   0.97437921 
   20400   0.90330239   -6.4171942    3.1693384  0.012946644  0.015191587            3    5.5105891    885.94665   0.97522803 
   20500   0.86942743   -6.4451468     3.168264  0.012879122  0.015203207            1    5.4853348    883.52248   0.97790381 
   20600    0.9090844   -6.4093351    3.1984872  0.012938864  0.015210366            4    5.3467312    889.54748   0.97128037 
   20700   0.87330431   -6.3940766    3.2157713  0.012945939  0.015218407       -1e+20    5.2890417     891.6113   0.96903213 
   20800   0.94041836   -6.4607626    3.2240525  0.012916877  0.015226022            2     5.105912    888.98186   0.97189835 
   20900   0.88501904   -6.4702669    3.2345155  0.012896792  0.015230627            1    5.0687819    888.18845   0.97276654 
   21000   0.91849597    -6.410708    3.2433626  0.012870486  0.015234872            6    5.8021688    882.06019   0.97952499 
   21100   0.92910295    -6.361421    3.2819938   0.01296206  0.015242263            5    5.7706522    886.59322   0.97451681 
   21200   0.93020367   -6.3857217    3.3108081  0.013014182  0.015251435            4    5.4620733    889.95928   0.97083093 
   21300   0.92377493   -6.4350311    3.3163369  0.012974714   0.01525937            1    5.3521651    887.70001   0.97330177 
   21400   0.87706246   -6.4568373    3.3156017  0.012911221  0.015263839            1    5.5256835    882.14707   0.97942852 
   21500   0.95207044   -6.4564514    3.3172009  0.012857368   0.01526659            2    5.4669237    885.07535   0.97618807 
   21600   0.97404259   -6.3998896    3.3414836  0.012891526  0.015267928            2    5.6831539    886.34435   0.97479044 
   21700   0.90132346   -6.3904724    3.3695649  0.012939957  0.015272467            5    5.7409515    885.46163   0.97576221 
   21800   0.89304232   -6.4040168    3.4180457  0.013065924  0.015277245            3    5.3030717    890.36492   0.97038864 
   21900   0.93250026    -6.418519    3.4506781  0.013130434  0.015285733            4    5.3798145    889.57253   0.97125301 
   22000   0.90747144   -6.3225664    3.4774726  0.013172244  0.015297205            2    6.1444238    884.45762   0.97686987 
   22100   0.94013942   -6.3762753    3.5063454  0.013221513  0.015309637            4    5.7004769    888.20261   0.97275103 
   22200   0.93860862   -6.4154344    3.5238087   0.01322751  0.015322153            3    5.6168476    885.78102   0.97541038 
   22300   0.93424101   -6.3710316    3.5579911  0.013295931  0.015333707            2    5.7026741    887.29612   0.97374482 
   22400   0.90166515   -6.4200879    3.6083508  0.013423924   0.01534944            2    5.4996298    885.79813   0.97539154 
   22500   0.92636989   -6.3607529    3.6592615   0.01355282  0.015370001            3    5.8041337    886.35414   0.97477967 
   22600    0.8859401    -6.336884    3.6632335  0.013507498  0.015391207            5    5.8976928    886.18826   0.97496214 
   22700   0.90539616   -6.4398782    3.6663258  0.013459345  0.015409009            6    5.3058535    887.34022   0.97369642 
   22800   0.91787586   -6.4119826    3.6959575  0.013508616  0.015424438            6    5.4149561    888.45519   0.97247448 
   22900   0.88354335   -6.4122087    3.6856323  0.013412053  0.015439188            4    5.5810312    885.38991   0.97584126 
   23000   0.93714548   -6.3949637    3.6761772  0.013319482  0.015448359            6    5.7322769     885.3812   0.97585086 
   23100   0.97727261   -6.3382895    3.7135614  0.013396686  0.015459349            6    5.8438846      889.747   0.97106256 
   23200   0.92757912   -6.4087428    3.7242875  0.013377469  0.015470801            3    5.4576308     888.7656   0.97213484 
   23300   0.88655959   -6.4149027    3.6935635   0.01321017  0.015475614            3    5.7053905    883.89223   0.97749473 
   23400   0.94171614   -6.4808028    3.7192238  0.013245099  0.015477562            2    5.2733419    885.38056   0.97585156 
   23500   0.94907705   -6.4444551    3.7456391  0.013282408  0.015481971            4     5.587818    883.12266   0.97834654 
   23600   0.99657656   -6.4253033    3.7604026  0.013278257  0.015487108            7    5.6652204    884.56388   0.97675252 
   23700   0.93140893   -6.3705494    3.7809262  0.013294396  0.015492601            2    6.1901858    881.17245   0.98051181 
   23800   0.92162161   -6.4009379    3.7895754  0.013268821  0.015496975            2    6.4274873    874.62462   0.98785237 
   23900    0.9476732   -6.4061943    3.8185886  0.013314465  0.015502155            5    5.9753682    881.26606   0.98040767 
   24000   0.91394477   -6.4174321    3.8434507  0.013345315  0.015504676            2    5.4291682    887.24547   0.97380041 
   24100   0.93845276   -6.4026055    3.8521583  0.013320049  0.015508388            2    5.4022845    889.86616   0.97093253 
   24200   0.90901446   -6.2974871    3.8938156  0.013408456  0.015512028            1    5.5671186    895.40148   0.96493028 
   24300   0.93756556    -6.308836    3.8936103  0.013352573  0.015516391            1    5.7549949    891.33708   0.96933025 
   24400   0.93980932   -6.3803567    3.9093976  0.013351768  0.015519348            5    5.6329509    888.24824   0.97270105 
   24500   0.92655125   -6.4455683    3.9085877  0.013294516  0.015521127            4    5.5004791     884.8884   0.97639431 
   24600   0.88973054   -6.4803316    3.9442325  0.013361221  0.015521948            1    5.3334388    884.19858   0.97715606 
   24700   0.89864675   -6.4096575     3.974583  0.013409524  0.015523613            4    5.0229596    894.53073   0.96586956 
   24800   0.94111512    -6.369685    3.9955263  0.013425827  0.015526177            5    5.2173699    895.53499   0.96478642 
   24900   0.92005881   -6.4079702    4.0052202  0.013404351  0.015528977            3     5.468077    887.80603   0.97318556 
   25000   0.90801697   -6.4238543    4.0188339  0.013396113   0.01553022            1    5.2279355    890.37244   0.97038044 
   25100   0.95658769   -6.3896715     4.037615  0.013405096  0.015531385            1    5.6302343    887.92913   0.97305063 
   25200   0.94008654   -6.4326965    4.0237362  0.013306006  0.015531786            2    5.4580019     886.5283   0.97458818 
   25300   0.93760156   -6.4390397    4.0518426   0.01334599  0.015529822            5    5.4876397    886.37741   0.97475408 
   25400   0.92486021   -6.4038804    4.0990274  0.013448252  0.015530219            7    5.2356564    892.26849   0.96831841 
   25500   0.91615111   -6.3927244    4.1229872  0.013473814  0.015532377            4     5.547701    888.16974   0.97278702 
   25600   0.92675016   -6.4167563    4.1311704   0.01344782  0.015535431            9     5.737261    884.35991   0.97697781 
   25700   0.97473712   -6.3965726    4.1332429  0.013402214  0.015537282            3    5.8024768    884.62829    0.9766814 
   25800   0.92207309   -6.4003051     4.164417  0.013450959    0.0155395            3    5.8394409    882.90903   0.97858326 
   25900   0.91073533   -6.4260232    4.1932043  0.013491648  0.015541896            5    5.6121921    884.57752   0.97673746 
   26000   0.91964961   -6.3384392    4.2592377  0.013651402  0.015546499            1    5.4459829    893.72557   0.96673971 
   26100   0.91710891   -6.3490582    4.2978736  0.013722457  0.015553627            1    5.4155173    893.48744   0.96699737 
   26200   0.90487753   -6.3935339    4.2866021   0.01363423  0.015560201            1    5.5006476    888.38908   0.97254685 
   26300   0.94162037   -6.4489877    4.3059643   0.01364374  0.015565251            7    5.1817831    889.32953   0.97151839 
   26400   0.91140086   -6.4277825    4.3376618  0.013692114  0.015570531            7    5.2921741     888.6763   0.97223252 
   26500   0.91126473   -6.4618039    4.3347236  0.013631206  0.015575014            6    5.3000218    886.04381   0.97512109 
   26600   0.96089891   -6.4259502    4.3786214  0.013717485  0.015579791            4    5.4733919    886.29683   0.97484271 
   26700   0.90343667   -6.4038907    4.4429809  0.013866981   0.01558917            6    5.4254474    889.34555   0.97150089 
   26800   0.91367753   -6.3842736    4.4299226  0.013774635  0.015597675            3    5.5354814     889.2041   0.97165544 
   26900   0.95353846   -6.3044547    4.4896491  0.013908454  0.015607241            4    5.9152673    889.17663   0.97168546 
   27000   0.94406562   -6.4000798    4.5103657  0.013920882  0.015619713            2    5.6791749    885.65984   0.97554384 
   27100    0.9334336   -6.4270773    4.5458366  0.013978587  0.015632312            1    5.6913486    883.37552   0.97806649 
   27200   0.86743806   -6.4543209    4.5481788  0.013934371  0.015644637            4    5.9201156    877.47947   0.98463842 
   27300   0.90784129    -6.455472    4.5637762   0.01393094  0.015656081            6    5.8448653    878.66158   0.98331373 
   27400   0.93129208   -6.4127146    4.5825988  0.013937344  0.015667018           11    5.7625644    883.20282   0.97825775 
   27500   0.93682479   -6.4413922    4.6365863  0.014050261  0.015678632            5    5.2410908    889.72226   0.97108957 
   27600   0.90550346   -6.3464874    4.6706351  0.014102159  0.015691303            7    5.3366533    895.50117   0.96482286 
   27700   0.87515862    -6.398409    4.6839409  0.014091278  0.015702944            4    5.1360152    892.79673   0.96774548 
   27800   0.91953196   -6.4232404    4.7178827  0.014142334  0.015714763            4    5.1160869     892.3941   0.96818211 
   27900    0.9212615   -6.3538633    4.7569876  0.014208445  0.015729027            3    5.3829408    893.13165   0.96738258 
   28000    0.8975434   -6.4193056    4.7159776  0.014035647  0.015741707            5     5.600246    884.97572   0.97629797 
   28100   0.95553919   -6.4582142    4.7390348  0.014054077  0.015750819            7    5.2859617    886.79183   0.97429856 
   28200   0.88682007   -6.3927276    4.7742556   0.01410832  0.015760949            3    5.4719048    889.09245   0.97177746 
   28300   0.93961561   -6.3864985    4.8375113  0.014244733  0.015772517            4    5.1452813    894.92463   0.96544443 
   28400   0.94744633   -6.4072516    4.8481298  0.014225733  0.015786408            2    5.4258888    889.29959   0.97155111 
   28500   0.89010425   -6.3586978    4.8589043  0.014207322  0.015799994            2    6.0049031    883.13643   0.97833128 
   28600    0.9254848   -6.3327123    4.8843275  0.014231723   0.01581415            4    6.3720488     881.0006   0.98070308 
   28700   0.95864375   -6.2919296    4.9355205  0.014330779  0.015830108            2    6.1008898    887.54414   0.97347271 
   28800   0.96165985   -6.4185306    4.9406845  0.014295962  0.015845638            1    5.6391372    884.80717   0.97648395 
   28900    0.9305696   -6.4309101    4.9303631  0.014216733   0.01585846           10    5.6520856    883.98523    0.9773919 
   29000   0.94948349   -6.3642864    4.9652862  0.014268064  0.015869545            7    5.5723049    890.22499   0.97054116 
   29100   0.90400225   -6.3152501    4.9925468  0.014297098  0.015882287            3    5.6443424    892.58272   0.96797752 
   29200     0.934507   -6.4430751    4.9875153  0.014233776  0.015892946            3    5.3539028    887.12046   0.97393763 
   29300   0.92013409   -6.4259382    5.0155949  0.014265059  0.015902748            5    5.3218794    889.50814   0.97132332 
   29400    0.9171406   -6.4243408    5.0578096  0.014336195  0.015912434            6    4.9451106    895.52052   0.96480202 
   29500   0.94451628   -6.3717279    5.0434294  0.014246975  0.015922281            2    5.3675714    893.32803   0.96716992 
   29600   0.93560117   -6.3692857    5.0804299  0.014303012  0.015931826            2    5.4843342    891.10182   0.96958617 
   29700   0.87056396   -6.3671733    5.1128978  0.014345953  0.015942467            4    5.7587595    886.40753   0.97472096 
   29800   0.92340113    -6.385062    5.1634076  0.014439059  0.015955106            3    5.4384677     891.0803   0.96960959 
   29900   0.94644317   -6.3393322    5.1952436  0.014479497  0.015967841            8    5.3220536    897.52136   0.96265119 
   30000   0.91089913   -6.3436334    5.1952615  0.014431282  0.015980254            3    5.4813541     892.9234   0.96760819 
   30100    0.9129081    -6.374775    5.2280518  0.014474119  0.015992417            2    5.4728313    891.12566   0.96956023 
   30200   0.90860201   -6.3939091    5.2797613  0.014568877  0.016006531            4    5.6613696    885.64327    0.9755621 
   30300   0.91119718   -6.3427993    5.3267284  0.014649968  0.016021876            3     5.598848    891.62303   0.96901938 
   30400    0.9329478   -6.3086903    5.3915404  0.014779442  0.016040438            6    5.5917813    893.82068   0.96663684 
   30500   0.95746819   -6.3909565    5.4093373   0.01477961  0.016059658            6    5.3421101    892.21497   0.96837649 
   30600   0.90242473   -6.3769721    5.4513441  0.014845708  0.016078701            1    5.6930399    886.49123   0.97462893 
   30700   0.96580174   -6.3758454     5.515199  0.014970681  0.016100419            3    5.4933478    891.32165   0.96934703 
   30800   0.91769199   -6.3344211    5.5406151  0.014990841   0.01612287            7    5.1892225    897.86217   0.96228579 
   30900   0.93645424   -6.4193845      5.53372  0.014923732  0.016142573            3    5.4039129     887.8567   0.97313001 
   31000   0.93103523   -6.4183425    5.5541204  0.014930431  0.016162639            3    5.5324424    886.82969   0.97425696 
   31100   0.89714826   -6.4449623    5.5842243  0.014963087  0.016182302            4    5.0223624    891.69044   0.96894613 
   31200   0.90344476   -6.3696847    5.6079347  0.014978458  0.016200596            3    5.2601909    894.07917   0.96635738 
   31300    0.9553543   -6.3292008    5.7042992  0.015187165  0.016222604            3    5.2543541    898.12588   0.96200323 
   31400    0.9337949   -6.4075869    5.6666795  0.015038958   0.01624487           12    5.7744102    883.49072   0.97793896 
   31500   0.86984566   -6.3467527    5.6687881  0.014996794  0.016265149            5    5.9610009    884.23035   0.97712095 
   31600   0.95552742   -6.3993352    5.6807647  0.014980919  0.016284499            2    5.7351008    885.11466   0.97614471 
   31700    0.9041711   -6.3912672    5.6341254  0.014811055  0.016300837            1    5.9489709    882.24136   0.97932384 
   31800   0.93952969   -6.3734182    5.6347659  0.014766158   0.01631425            3    6.0094845    883.38078   0.97806067 
   31900   0.96305338   -6.3617407    5.6207958  0.014683375  0.016325778            4    5.7829169    887.11277   0.97394607 
   32000   0.93619238   -6.4177566    5.5968572  0.014575149  0.016333623            3    5.6464099    884.07268   0.97729521 
   32100   0.90591937   -6.4104524    5.6457712  0.014656727  0.016342061           14    5.7492211    883.03132   0.97844774 
   32200   0.94243222   -6.4154757    5.6327426  0.014577491  0.016349587           12    5.8206072     882.3353   0.97921958 
   32300   0.90147623   -6.4328585    5.7382124  0.014804469  0.016358776            3    5.4364901    886.30923   0.97482907 
   32400   0.93405476   -6.3881272    5.7541585   0.01479979  0.016369802            6    5.4219492     890.3228   0.97043455 
   32500   0.93169301    -6.411221    5.7886463  0.014842683  0.016379936            7    5.1272117    893.66276   0.96680766 
   32600   0.91113522   -6.4713705    5.7605641  0.014725368  0.016389281            2    5.3841943    884.67611   0.97662861 
   32700   0.94768103   -6.4880971     5.763409  0.014687586  0.016397007            1    5.4434254     882.4016     0.979146 
   32800   0.92026611   -6.4376501     5.779678  0.014684141  0.016403783            4    5.5523085    884.25666   0.97709188 
   32900   0.99194218   -6.4498524    5.8294154   0.01476549  0.016411738            2    5.4656584    886.61759   0.97449003 
   33000   0.92489807    -6.432298    5.8712324  0.014826344  0.016420736            3     5.489997    886.14649   0.97500809 
   33100   0.91963782   -6.4224404    5.8881552  0.014824157  0.016430664            2    5.8236949    881.29067   0.98038029 
   33200   0.95205098   -6.3665899    5.8873025  0.014777365  0.016440035            5    6.1604935    881.30145    0.9803683 
   33300    0.9223752   -6.3712667    5.9049477  0.014777146  0.016448611            8    5.9771242    884.61977   0.97669081 
   33400   0.97101341   -6.4113512     5.873101  0.014653445  0.016455256           15    5.7913189    884.16697     0.977191 
   33500   0.94732616    -6.374473    5.8908218  0.014653785  0.016460282           11     5.684296    888.08123   0.97288398 
   33600   0.90509489   -6.3278444    5.9259401  0.014697272  0.016465148            9    5.8249353    889.21872   0.97163947 
   33700   0.96614764   -6.4377386    5.8935262  0.014573507  0.016469018            3    5.5230047    886.37251   0.97475948 
   33800   0.94491599   -6.4032196    5.9386061  0.014641534  0.016472241            3    5.8451541    883.30376   0.97814596 
   33900   0.89693967   -6.4165317    5.9950134  0.014737004  0.016476838            4    5.6541468    884.17894   0.97717776 
   34000   0.94797338    -6.375289    6.0098653  0.014730062  0.016482721            3    5.9802408    882.76398   0.97874406 
   34100   0.93974142   -6.4186002    6.0359266  0.014750553  0.016488654            5    5.8733529    881.91878   0.97968205 
   34200   0.93681271   -6.4413233    6.0746255  0.014801719  0.016494779            2    5.5408412    885.06501   0.97619947 
   34300   0.90096515   -6.3573433    6.1068294  0.014836806   0.01650154            2    5.7906897    886.54481   0.97457003 
   34400   0.96911454   -6.3752902    6.1307091  0.014851524  0.016508706            1    5.6378472    888.51834   0.97240536 
   34500   0.87519162   -6.3448993    6.1694715  0.014902105  0.016515634            5    5.6579636    890.74641   0.96997303 
   34600    0.9302241   -6.3533979    6.1455196  0.014801348  0.016521976            5    5.6792258    890.07579   0.97070386 
   34700   0.94672825   -6.3730749    6.2072831   0.01490702   0.01652854            2    5.5812968    889.86216    0.9709369 
   34800   0.93095703   -6.4209186    6.1958802  0.014836878  0.016534884            8    5.7039552    883.55347   0.97786951 
   34900   0.91755666   -6.4414667     6.189784  0.014779809  0.016539144            4    5.4590947     885.6221   0.97558542 
   35000   0.92602428   -6.4538289    6.2099907  0.014785692  0.016541893            7    5.2901762    887.50114   0.97351987 
   35100    0.9613544     -6.45105     6.285435  0.014922685  0.016546808           12    5.3666174    886.69518   0.97440476 
   35200   0.87850668    -6.421094     6.329177  0.014983847  0.016553873            9    5.3974266    887.91726   0.97306364 
   35300   0.92347824   -6.4003945    6.3784665  0.015057758  0.016561529            2     5.232237    892.89765    0.9676361 
   35400   0.93037674   -6.4181722    6.3809816  0.015021143  0.016569352            2    5.3217676    889.31123   0.97153838 
   35500   0.94690484   -6.4415289     6.367478  0.014947131  0.016576016            3    5.5732993    884.96623   0.97630844 
   35600   0.87571348   -6.4151673    6.3748714  0.014922452  0.016582078            3    6.1797811    876.24291   0.98602795 
   35700   0.94859403   -6.4358124    6.3876315  0.014910437  0.016588432            5    5.8741895    880.03474   0.98177942 
   35800   0.92947544   -6.4282246    6.4275031  0.014961599  0.016594649            3    5.7770895    882.76477   0.97874318 
   35900   0.94893385   -6.4234454     6.412975    0.0148862  0.016599736            8    5.6058325    884.91846   0.97636115 
   36000   0.92677909   -6.4238017    6.4103786  0.014838839  0.016603488            5    5.4288128    887.47298   0.97355076 
   36100   0.90172858   -6.3819477    6.4471277  0.014882566  0.016606641            6    5.6445965    887.69438   0.97330796 
   36200   0.97308099   -6.4233678    6.4841558  0.014926694   0.01661038            2    5.2752992     890.8399   0.96987124 
   36300   0.90033587    -6.381875     6.486882  0.014891832  0.016615218            3      6.16039    878.91695   0.98302804 
   36400   0.96581618   -6.4086092    6.4836811  0.014843592  0.016619367            4     6.155994    878.78028   0.98318091 
   36500   0.98670834   -6.3393294    6.5300523  0.014908795  0.016624054            5    6.3955968    880.73543   0.98099835 
   36600   0.92903868   -6.3461226    6.5703698  0.014959858  0.016630017            9    6.3809881     879.4981   0.98237847 
   36700   0.95178259   -6.4060512    6.5948005   0.01497457  0.016635903            6    6.0649301    879.28783    0.9826134 
   36800   0.95885731   -6.4082214    6.6143596  0.014978169  0.016641847           18    6.0594602    879.16525    0.9827504 
   36900   0.93902179   -6.3928546    6.6118303  0.014931866  0.016646792           20    5.8084188    884.26113   0.97708694 
   37000   0.91408951   -6.4277815    6.6254827  0.014922258  0.016650241           14    5.5156035    885.20778   0.97604204 
   37100   0.91400571   -6.4537322    6.6532091  0.014944315   0.01665326           17    5.3235417    886.65944   0.97444404 
   37200   0.91668194   -6.4413964    6.6967712  0.015001727  0.016656297           18    5.2348641    889.57733   0.97124777 
   37300   0.94018264   -6.4384361    6.6941596  0.014955674  0.016659745           17    5.4026237    887.27577   0.97376715 
   37400   0.88858166   -6.4413034    6.6796539  0.014883364  0.016661616           18    5.7358028    881.58949   0.98004798 
   37500   0.95222392    -6.451538    6.7239563  0.014942125  0.016664095           14    5.5814068    883.58774   0.97783158 
   37600   0.94900819   -6.4178287    6.7319347  0.014920068  0.016666858           14    5.7132867    883.66765   0.97774316 
   37700   0.97908662   -6.3906547    6.7433922  0.014905818  0.016669523            4     5.869564    883.95661   0.97742354 
   37800    0.9165292   -6.4199354    6.7691943  0.014923268  0.016671654            8    5.8215958    881.42256   0.98023359 
   37900   0.95753067   -6.4230305    6.8355968  0.015029896  0.016674487           10    5.5128482    886.84806   0.97423678 
   38000   0.95431405     -6.40443    6.8700162  0.015065825  0.016679047           12    5.5056122    888.12483   0.97283622 
   38100    0.9177883   -6.3876911    6.9138218  0.015122095  0.016683943            9    5.5687083    888.56331   0.97235615 
   38200   0.91483122   -6.3847244    6.9701901  0.015205476  0.016689624            9    5.3457506    891.68341   0.96895377 
   38300   0.92943232   -6.3514885    6.9845098  0.015196931  0.016695633            3    5.4882802    892.04376   0.96856234 
   38400   0.87118356   -6.3527774    7.0110663  0.015214987  0.016702501            2    5.9389462    883.95441   0.97742597 
   38500   0.94261371    -6.398407    7.0047102   0.01516171    0.0167088            4    5.8408301    883.14005   0.97832727 
   38600   0.95076463   -6.4393556    7.0438103  0.015206844  0.016714868            7    5.5416578     885.6142   0.97559411 
   38700   0.94900262   -6.4289518    7.0738468  0.015232228  0.016721214            2    5.5691949    885.41858   0.97580966 
   38800   0.92759708   -6.3517889    7.0705191  0.015185823  0.016727725            3    6.3494672    879.30003   0.98259976 
   38900   0.87711929   -6.3440275    7.1016931  0.015213567  0.016734543            8    6.2613354    880.56861   0.98118419 
   39000   0.94435108   -6.3808565    7.1312634  0.015237742  0.016740443            9    5.5911202    888.24242   0.97270742 
   39100   0.93651617   -6.3391993    7.1995084  0.015344221  0.016747879           14    5.6545748    890.18137   0.97058872 
   39200   0.89014157   -6.3642768    7.2252961  0.015359898  0.016755676            6     5.395446    892.11471   0.96848532 
   39300   0.88485467   -6.4026703    7.2470771  0.015366999  0.016762832            3    5.1697883    892.78298   0.96776038 
   39400    0.9314055    -6.376742      7.29083  0.015420537  0.016769808            3     5.171391     895.1307   0.96522217 
   39500   0.91498043   -6.4455217     7.277061  0.015352449  0.016776856            4    5.3446292    887.06358   0.97400008 
   39600   0.87523209   -6.3212544    7.2219728  0.015197754  0.016782365            2    6.2906919    881.69176    0.9799343 
   39700   0.93531551   -6.3979799    7.2491199  0.015216456  0.016786855            3    5.5057998    889.03477    0.9718405 
   39800    0.9489136   -6.3579862    7.2657649  0.015213075   0.01679128            2    5.7221151    888.59636   0.97231999 
   39900   0.91415524   -6.4073572    7.2814688  0.015207746  0.016794765            4    5.4301246    888.49876   0.97242679 
   40000   0.91481109   -6.4342437    7.3129168  0.015235243  0.016797634            1    4.9480134    894.94793    0.9654193 
   40100   0.93808364   -6.3775548    7.3292558  0.015231205  0.016800978            2    5.3736697    892.50351   0.96806343 
   40200   0.92312206   -6.3787046    7.2826613  0.015096727  0.016803576            3     5.808924    884.96573   0.97630899 
   40300   0.94677294   -6.3993193    7.3043871  0.015104192  0.016805634            2    5.7359598    885.41388   0.97581483 
   40400   0.94318086   -6.4008014    7.2824311  0.015021516  0.016806934            4    5.8485401    882.95823   0.97852874 
   40500   0.91409252   -6.4152554    7.2877354   0.01499534  0.016806997            5    5.9985577    879.78533   0.98205775 
   40600   0.98404362    -6.407366    7.2813113   0.01494522  0.016806345            1    5.9226975    881.90092   0.97970189 
   40700   0.96151581   -6.2729508    7.3846293  0.015120043   0.01680724            3    6.2308996    888.04894   0.97291935 
   40800   0.95494883   -6.3884451    7.3810735  0.015075722   0.01680889            7    5.6349001     887.7302   0.97326868 
   40900   0.93805339   -6.3960398    7.3794715  0.015035598  0.016809363            8    5.6636346      885.738   0.97545775 
   41000   0.87433286   -6.4333664     7.415864  0.015072894  0.016809107            5    5.4683137    885.53421   0.97568224 
   41100   0.91657205   -6.4119055     7.464312  0.015134452  0.016809333            6    5.7463752    883.53117   0.97789419 
   41200   0.95758954   -6.3963615    7.4850148  0.015139593   0.01681121            3     5.782346    884.60507   0.97670705 
   41300   0.94355443   -6.3873418    7.5034271  0.015140087  0.016812951            4    5.8592401    883.79079   0.97760693 
   41400   0.91427116   -6.4066184    7.5309799  0.015158977  0.016814637            7    5.7112058    884.61063    0.9767009 
   41500    0.9276728   -6.3597291    7.6102766   0.01528168  0.016817291            5    5.4021916    893.15413   0.96735824 
   41600   0.98819023   -6.4428612    7.6141739  0.015252752  0.016820086            1    5.2339426    890.56254    0.9701733 
   41700   0.90223247   -6.3885127    7.5981699  0.015184192  0.016822371            4    5.6446896    886.96168   0.97411199 
   41800   0.97307346   -6.4257557    7.6262154  0.015203778  0.016823942           12    5.4573036    887.79485   0.97319781 
   41900   0.91334045   -6.3442242    7.6085462  0.015132351  0.016825277           13     5.990744    885.01602   0.97625352 
   42000   0.91407295   -6.4010294    7.6398018  0.015158337  0.016826198            2    5.7994307    883.19502   0.97826639 
   42100   0.93523188   -6.4372349    7.5930823  0.015029854  0.016825858            7    5.8499104    879.74232   0.98210576 
   42200   0.92352052   -6.3981449    7.5918794  0.014991863  0.016824923            8    6.0323022    880.03349   0.98178081 
   42300   0.93594521   -6.3457364    7.5916457  0.014955961  0.016823043            6    6.1253715    884.18693   0.97716894 
   42400   0.97852417   -6.3093869    7.6211232  0.014978622   0.01682176            5    6.2315832     885.2328   0.97601445 
   42500   0.93406349   -6.3497865    7.6575639  0.015014831  0.016820886            4    6.3333059    879.89439   0.98193602 
   42600   0.95617171   -6.3733674    7.7064474   0.01507521    0.0168208            5    5.9766213    883.60301   0.97781469 
   42700   0.92963408   -6.3371814    7.7686869  0.015161372  0.016821455            4    5.8244225    888.33847   0.97260226 
   42800   0.96005702   -6.3672427    7.8065345  0.015199639  0.016822424            3    5.6523915    888.25778   0.97269061 
   42900   0.90509604   -6.3414623    7.8072457   0.01516559  0.016823131            3    6.2305514      880.709   0.98102778 
   43000   0.90133772   -6.3736248    7.8787081  0.015268814  0.016825473            2    6.0512879    880.93325   0.98077805 
   43100   0.95492541   -6.3775647    7.9249671  0.015322829  0.016828105            2    5.4845755    890.30384   0.97045521 
   43200   0.95038525   -6.3625337    7.9645255  0.015363668  0.016831904            2    5.6325859    889.09093   0.97177912 
   43300   0.88363507   -6.3605598    8.0040735  0.015404298  0.016835908            1    5.9715736    883.80846   0.97758739 
   43400   0.95906836   -6.4379472    8.0200587  0.015399498  0.016839777            5    5.4994476    886.45608   0.97466758 
   43500    0.8937053   -6.4558062    8.0117931  0.015348262   0.01684322            4    5.4885221    883.00427   0.97847771 
   43600   0.92835131   -6.4748042    8.0183556  0.015325603  0.016844983            1    5.3073591    885.33565   0.97590107 
   43700   0.91434628   -6.4547761    8.0262221  0.015305534  0.016846968            4    5.6396716    881.46388   0.98018763 
   43800   0.88485245   -6.3909891    8.0587354  0.015332449  0.016849098            2    5.6850842    885.39145   0.97583956 
   43900   0.96097898   -6.4109716    8.0959434  0.015368154   0.01685153            6    5.6220363    886.25026   0.97489393 
   44000   0.92040936   -6.3726043    8.1567581  0.015448405  0.016855631            7    5.8711627    885.84489   0.97534006 
   44100   0.96802131   -6.3604553    8.1884636  0.015473287  0.016860319            2    5.9590011    884.77135   0.97652349 
   44200    0.9428871   -6.4129501    8.1868852  0.015435304   0.01686529            1     6.000464    880.31344    0.9814686 
   44300   0.96653013   -6.4031441    8.1860846  0.015398955  0.016869555            3     6.228989    878.15432   0.98388173 
   44400   0.93371745   -6.3683912    8.1843285  0.015360977  0.016873196            3    6.2137798     880.0063   0.98181116 
   44500   0.91532346   -6.2621029    8.3193508  0.015579308  0.016878004            2     5.909638     893.3043   0.96719562 
   44600   0.95187932   -6.3117612    8.3205055  0.015546535  0.016883881            3    5.8959884    888.93602   0.97194847 
   44700   0.92980422   -6.3544706    8.2864332  0.015448235  0.016888276            4    5.9038287    885.05364   0.97621202 
   44800   0.96259041   -6.3556893    8.3140762  0.015465171  0.016892114            1    5.9259251    885.82299   0.97536417 
   44900   0.95574914   -6.2774862    8.4379954  0.015660719  0.016897645            8    5.8300327    893.66873    0.9668012 
   45000   0.93433833   -6.3301574    8.4117325  0.015577282  0.016903939            4    5.8349895    888.05932   0.97290798 
   45100   0.92042207   -6.4242189    8.4805643  0.015669926  0.016909461            2    5.2318236    891.12595   0.96955992 
   45200   0.96382274   -6.4052555    8.5383192  0.015741739  0.016915525            6    5.1463615    893.46676   0.96701974 
   45300   0.91153355   -6.3780797    8.5699693  0.015765212  0.016922447            4    5.1273512    896.65779   0.96357831 
   45400   0.92319352   -6.4302925    8.5186446  0.015636278  0.016928081            6    5.3019845    889.24989   0.97160541 
   45500   0.91597216   -6.3901155    8.4906065  0.015550561  0.016932234            4    5.6991849    885.79058   0.97539985 
   45600   0.93033183   -6.3612934    8.5577036  0.015639078  0.016936754            6    5.5144214    891.72023   0.96891376 
   45700   0.90524783   -6.3901653    8.5623572  0.015613343  0.016941054           10     5.355059    891.01345   0.96968233 
   45800   0.90301346   -6.4064557    8.5263337  0.015513707  0.016944246            5    5.5155564    887.12377     0.973934 
   45900   0.94511149    -6.384239    8.6252109  0.015659424  0.016947876           10    5.1152109    895.91873   0.96437319 
   46000   0.91586102   -6.3755377    8.5701312    0.0155256  0.016951102           11    5.6517252    887.52497   0.97349374 
   46100   0.93643686   -6.3641056    8.5599506  0.015473519  0.016954126            6     6.024305    883.39881   0.97804071 
   46200   0.96485578   -6.4672543    8.5754292  0.015467946  0.016956931            9    5.7281343     880.6069   0.98114153 
   46300    0.9192495   -6.4332226    8.5757014  0.015435027  0.016959046           12    6.2948975    873.81337   0.98876949 
   46400    0.9456477   -6.3850467    8.6262525  0.015492551  0.016961976            8    6.4779184    875.45345   0.98691712 
   46500   0.98784563   -6.3818842    8.7339126  0.015652173  0.016966701            7    5.9444746    883.48804   0.97794193 
   46600   0.92124082   -6.3273717    8.7598548  0.015664976  0.016972274            4    6.2517653    882.17449   0.97939808 
   46700   0.91445075   -6.3831281    8.7683465  0.015646585  0.016977274            4     5.999132    881.42182   0.98023441 
   46800   0.94460081   -6.4474875    8.7361327  0.015555792  0.016981459            6     5.922851    878.33233   0.98368234 
   46900   0.89113498   -6.4383814    8.7351896  0.015520948  0.016984093            3    5.9027276    878.52734   0.98346399 
   47000   0.93721149   -6.4103816    8.8007775  0.015604215  0.016986991            3    5.7016313     884.1922   0.97716311 
   47100   0.93383382   -6.4520834    8.8171239  0.015600007  0.016990053            6    5.2947282    887.73233   0.97326634 
   47200    0.8992044   -6.4257146    8.8350764  0.015598652  0.016992786            6    5.6463294    883.26565   0.97818816 
   47300   0.93474852   -6.3837089    8.8884175   0.01565965  0.016996009            5    5.8041722      885.058   0.97620721 
   47400   0.95067591   -6.3849536    8.9605598  0.015753445  0.017000627            4     5.529198    888.77785   0.97212143 
   47500    0.8836929   -6.3832144    9.0094182  0.015805997  0.017006031            3    5.5083417    888.88024   0.97200946 
   47600   0.89336198   -6.4171512    8.9920958  0.015742464  0.017010409            3    5.4519304     887.4595   0.97356555 
   47700   0.93008133   -6.3814495    9.0477802  0.015806744  0.017014972            3    5.5675056    888.67312   0.97223601 
   47800    0.8766213   -6.4159127    9.0582357  0.015791903  0.017020155           10    5.3509328    888.71634   0.97218872 
   47900   0.92083029   -6.4649898    9.0620492  0.015765569  0.017024238            6    5.0453139    889.40915   0.97143143 
   48000    0.9362484   -6.3883087     9.105761  0.015808613  0.017028647            2    5.2754422    891.98754   0.96862339 
   48100   0.84726717    -6.343461    9.1038076  0.015772362  0.017033208            3    5.6043422    889.75262   0.97105643 
   48200   0.93449443   -6.4142042    9.0861616  0.015709131  0.017036521            5    5.4016817    888.60043   0.97231554 
   48300   0.93681462   -6.4000659    9.0943214  0.015690685  0.017039804            2    5.6122169    886.94791    0.9741271 
   48400   0.95633682   -6.3656953    9.1308418  0.015721146  0.017043733            3     5.774748    887.34429   0.97369196 
   48500   0.99501018   -6.3146093     9.145934  0.015714663  0.017047067            4    5.5626298    895.28021   0.96506099 
   48600   0.93730823   -6.3239307     9.114005   0.01562758  0.017050505           19    5.9534537    887.26888   0.97377472 
   48700   0.95294005   -6.3929379    9.1058231   0.01558149  0.017052625           10    5.7882653    884.29669   0.97704764 
   48800   0.90648332   -6.3974235    9.0934472  0.015528427  0.017054284           11     6.128196    878.82481   0.98313109 
   48900   0.94754532   -6.4010951    9.1041798  0.015514962  0.017055364            3    6.2161494    878.48767    0.9835084 
   49000   0.97965613   -6.3567948    9.1453723  0.015553354   0.01705706            4    6.1671357     882.0418   0.97954541 
   49100   0.94273032   -6.3475311    9.1312191  0.015497656  0.017058441            3    6.1842801    882.25278   0.97931116 
   49200   0.93791254   -6.4055138    9.1291099  0.015462584  0.017058796            2    5.9720468    880.80087   0.98092546 
   49300   0.90064633   -6.4555475    9.1846121  0.015525037  0.017058637            2    5.4512301    884.59125    0.9767223 
   49400   0.92108575   -6.4212255    9.2917124  0.015674279  0.017059392            2    5.1683196    891.83536   0.96878868 
   49500    0.9190955   -6.3777456    9.2817123  0.015625778  0.017060624            3    5.4717668    890.22259   0.97054379 
   49600   0.93992066   -6.3756146     9.262298  0.015561656  0.017061476            2    5.6337361    888.38461   0.97255175 
   49700   0.89910238   -6.4189411    9.3269423  0.015638736  0.017062553            1    5.4376223     887.8844   0.97309965 
   49800   0.94050919   -6.4266289    9.3675185  0.015675232  0.017063899            3     5.124611    892.39228   0.96818408 
   49900   0.94908733   -6.3903795    9.3823423  0.015668574  0.017065151            2    5.1930479    894.04745   0.96639166 
   50000   0.91704998   -6.3997507    9.3481726  0.015580288  0.017066597            1    5.7621121    884.22516   0.97712669 
   50100   0.92970835   -6.4540587    9.3494707  0.015551348  0.017066847            4    5.8046524    879.33901    0.9825562 
   50200   0.93296473   -6.3832239    9.4055206  0.015613414  0.017067554            1    5.6354198    887.43235   0.97359534 
   50300    0.9420187   -6.3982507    9.4112275  0.015591828   0.01706845            5    5.7164486    885.55801   0.97565601 
   50400   0.91486944   -6.4004082    9.3634914  0.015481963  0.017068532            1    5.9495502    881.00533   0.98069782 
   50500       0.9485   -6.3769852    9.3426551  0.015416923  0.017067623            3    6.2249953    879.53557   0.98233662 
   50600   0.95391558   -6.3611195    9.3871536  0.015459739  0.017066831            3    6.3070836    879.88781   0.98194337 
   50700   0.89676781   -6.3675504     9.419034  0.015481647  0.017066597            6    6.1858451    879.84838   0.98198738 
   50800   0.97234401    -6.407608    9.4604199  0.015519061  0.017066511            2    5.8702799    882.86506     0.978632 
   50900   0.90735642   -6.3591206    9.5022876  0.015557118  0.017066432            3    5.8077199    886.55436   0.97455953 
   51000   0.88811304   -6.3891988    9.4594819   0.01545667  0.017065412            2    6.0094624    881.23703   0.98043997 
   51100   0.93547933   -6.3821452    9.5256227  0.015534283  0.017064532            3    5.6443699    887.83382   0.97315509 
   51200   0.92175087   -6.3704114    9.5357495  0.015520425  0.017064177            2    5.8059222    886.13226   0.97502375 
   51300    0.9702542   -6.4434764     9.528579  0.015478523  0.017063361            4    5.5964788     885.0408   0.97622618 
   51400   0.95217902   -6.4088361    9.5320234  0.015453994  0.017062094            1     5.741679    884.51739   0.97680385 
   51500   0.93158415   -6.4460429    9.5074677  0.015384252  0.017060447            6    5.9080735    878.70377   0.98326652 
   51600   0.85290244     -6.44357    9.4995403  0.015341635  0.017058085            3    6.0340237     876.0197    0.9862792 
   51700   0.94280043   -6.4425591    9.5244581  0.015352124   0.01705538            6    5.7614022    880.68656   0.98105278 
   51800   0.95826142   -6.4032741     9.586555  0.015422386  0.017053221            3    5.8044391    883.14096   0.97832627 
   51900    0.8994601   -6.4144386    9.5881139  0.015395173  0.017051658            5    6.0619428    878.49055   0.98350518 
   52000   0.88290021   -6.4228316    9.5873505  0.015364344  0.017048945            3    5.9700041    878.50651    0.9834873 
   52100    0.9713548   -6.4472492    9.6723139  0.015470751   0.01704702            3    5.6911746    882.45658     0.979085 
   52200   0.89926685   -6.4029664    9.7042468  0.015492092  0.017046213            5    6.0742167    878.63353   0.98334512 
   52300   0.94513795    -6.427478    9.7265459  0.015498002  0.017045474            5    5.8283421    881.09648   0.98059636 
   52400   0.92405266   -6.4245587    9.7123365  0.015445828  0.017044055            7    5.9439931    878.78489   0.98317576 
   52500    0.9233844   -6.4357226    9.7196315  0.015427986  0.017042105            5    5.8448431    880.08323   0.98172533 
   52600   0.97853548   -6.4544625     9.726772  0.015409968  0.017040238            4    5.7918967    879.68626   0.98216834 
   52700   0.89230234   -6.4383306    9.7152291  0.015362475  0.017037645            5    5.8507545    879.58589   0.98228043 
   52800   0.94835988    -6.474086    9.7120158  0.015328308  0.017034509            6    5.6747566      879.989   0.98183045 
   52900   0.93954746   -6.4773135    9.7502205  0.015359515  0.017031133            8     5.623797     880.4775   0.98128572 
   53000    0.9715874   -6.4516267    9.7888834  0.015391326  0.017028476            3    5.7020591    881.41441   0.98024266 
   53100   0.88417945   -6.3909956    9.8554921  0.015466874  0.017026363            4    5.6367978    886.18157    0.9749695 
   53200   0.91113212   -6.3858418    9.9323238  0.015558151  0.017024976            4    5.4339164    890.24144   0.97052323 
   53300    0.9466531   -6.3820903    9.9754322   0.01559636  0.017024402           11    5.4820004    889.92077   0.97087295 
   53400   0.93638035   -6.4314987     10.01988  0.015636516  0.017024365            7    5.3860278    887.81714   0.97317338 
   53500   0.91773236   -6.4017034    10.016986  0.015602782  0.017024441            6    5.5675912    887.24391   0.97380212 
   53600   0.93128616   -6.3265085    10.060132  0.015640752  0.017024754            2    5.8129784    889.18055   0.97168118 
   53700   0.95081456   -6.4340093    10.046495  0.015590464  0.017024814            7    5.7540108    882.28694   0.97927326 
   53800   0.91893657   -6.3912743    10.101778  0.015647116  0.017025129            2     5.944514    881.64707   0.97998397 
   53900   0.92825385   -6.3208853    10.142042  0.015680338  0.017026364            6    6.0343406    885.92211   0.97525504 
   54000   0.92174852   -6.3533094     10.13031  0.015633195  0.017027138            5    5.7027645    887.83612   0.97315256 
   54100   0.88580222   -6.3806451    10.166323   0.01565977  0.017027034            2    5.5636762    887.23926   0.97380723 
   54200   0.91686829   -6.4361452    10.230538   0.01572961  0.017027174            2    5.0578345    892.26008   0.96832753 
   54300   0.91453341   -6.3568653    10.234164  0.015706207   0.01702748            2    5.5846918    890.22482   0.97054135 
   54400   0.91280428   -6.3722989    10.246984  0.015696972  0.017028242            2    5.6078701    888.23863   0.97271158 
   54500   0.98981927    -6.452554    10.235726  0.015650957  0.017028699            2    5.2277475    889.14941   0.97171521 
   54600   0.93817041   -6.4273395    10.214301  0.015589593  0.017028455            2    5.3734109    887.57777   0.97343582 
   54700   0.93285528   -6.4105908    10.206323  0.015548938  0.017027075            4    5.6115588    885.45417   0.97577043 
   54800   0.92789741   -6.3952268    10.215183  0.015534037  0.017025813            5    5.7427722     885.5424   0.97567322 
   54900   0.96779087   -6.3666794    10.273411  0.015594127  0.017024886            4    5.6964298    888.43885   0.97249237 
   55000   0.91644301    -6.368802    10.275348   0.01556871  0.017023958            8    5.8485939     885.4282   0.97579905 
   55100   0.91734471   -6.3954166    10.356118   0.01566261    0.0170235            7    5.6188627    886.63798   0.97446762 
   55200   0.92614963   -6.3338234    10.337603  0.015606284  0.017023148            4    5.8764765    888.01715   0.97295418 
[...]
   89400   0.90482798   -6.3811224    16.912781  0.015765083  0.016465483            5    5.3810529    891.37593   0.96928801 
   89500   0.92011046    -6.398687    16.900329  0.015735874  0.016464889           10    5.4783651    888.35228   0.97258714 
   89600     0.962579   -6.4352707    16.856997  0.015678011  0.016464267            2     5.574694    883.77841   0.97762062 
   89700    0.8724905   -6.4013148    16.897576  0.015698231  0.016463607            8    5.8082294    882.78312   0.97872283 
   89800   0.90949675   -6.4035064    17.005751  0.015781135  0.016463115            2    5.4274523    888.37784   0.97255916 
   89900   0.90575649   -6.4057352      17.0385  0.015793937  0.016462802            4    5.3159618    889.92516   0.97086815 
   90000   0.90208579   -6.4537047    17.020611  0.015759825  0.016462453            7    5.2985252    886.21085   0.97493728 
   90100   0.84561352   -6.3853602    17.062434  0.015781016   0.01646197            3    5.7278169    884.21113   0.97714219 
   90200   0.92238495   -6.3837334    17.131255  0.015827102  0.016462166            2    5.5893887    887.78562   0.97320792 
   90300    0.8836875   -6.3806393    17.233401   0.01590384  0.016462395            2    5.1923612    893.86592   0.96658792 
   90400   0.94797559   -6.3752424    17.283768  0.015932677  0.016462911            1    5.1527688    896.56704   0.96367584 
   90500   0.90539041   -6.3872683    17.214931  0.015851686  0.016463325            3    5.2850256    892.37707   0.96820059 
   90600   0.94046291   -6.3539466    17.211449  0.015830987  0.016463489            6    5.7688298    888.10478   0.97285818 
   90700   0.96953196   -6.3507279    17.183427  0.015787786  0.016464006            6    6.1917606    882.93609   0.97855327 
   90800   0.94147022   -6.3615064    17.206013  0.015791128  0.016464474            4    5.8975241    885.54487    0.9756705 
   90900   0.92080595   -6.3904072     17.25177  0.015815704  0.016464822            4    5.6546406     886.3136   0.97482426 
   91000   0.92175456   -6.4474253    17.205505  0.015755957  0.016464625            1    5.4427303    885.13555   0.97612168 
   91100    0.9118047    -6.353895     17.34056  0.015862202  0.016464504            6    5.3983841     893.6027   0.96687264 
   91200   0.94378878   -6.3635684    17.311476  0.015818234  0.016464665            6    5.5522487    890.29451   0.97046538 
   91300   0.95352009   -6.4322301    17.285483  0.015777184  0.016464638           10    5.4515734    886.86196   0.97422151 
   91400   0.87470769   -6.3737017    17.369411  0.015836443  0.016464579            5    5.6376429    886.90192   0.97417762 
   91500   0.88209269   -6.3372579    17.448502  0.015891167  0.016464815            4    5.5608786    891.06382   0.96962752 
   91600   0.95873002   -6.3643801    17.507548  0.015927536  0.016465439            4    5.3706306    893.53097   0.96695026 
   91700    0.9227481   -6.3911164    17.515414  0.015917316  0.016466077            4    5.1150096    894.46089   0.96594497 
   91800   0.92146372   -6.4255425     17.45853  0.015848339  0.016466261            4     5.258471    889.39361    0.9714484 
   91900    0.8982217   -6.4291529     17.38106  0.015760845   0.01646598            5    5.6624153    883.36277   0.97808061 
   92000   0.92499772   -6.3554952    17.465538  0.015820234  0.016465797            3    5.8826051    885.71588   0.97548212 
   92100   0.91783526    -6.355743    17.480903  0.015816959  0.016466136            2    5.8459903    885.82124   0.97536609 
   92200   0.94599608   -6.4541832    17.411753  0.015737304  0.016465927            1    5.5686006    883.30255    0.9781473 
   92300   0.92751209   -6.3230175    17.528511  0.015825669  0.016465731            3    5.7722436    889.66161   0.97115576 
   92400   0.91658704   -6.3602991    17.565161  0.015841595  0.016466015            1    5.4790073    890.85766   0.96985191 
   92500    0.9294969   -6.3865658    17.599183  0.015855119  0.016466106            3    5.4147239     889.8087   0.97099523 
   92600   0.92261772   -6.4239716    17.583823  0.015824175   0.01646616            3     5.380965    887.77537   0.97321917 
   92700   0.90413629   -6.4408471     17.58762  0.015810518  0.016465807            2    5.2929274    887.00246   0.97406719 
   92800   0.89584163   -6.3422432    17.765698  0.015953393  0.016466009            2    5.2378311    896.62355   0.96361511 
   92900   0.92433819   -6.4135727     17.62556  0.015810513  0.016466008            2    5.1079101    892.93403   0.96759668 
   93000   0.91352183   -6.3657054    17.596896  0.015767827  0.016465636            2    5.8400855    885.82224   0.97536499 
   93100   0.92601624   -6.4485366     17.59929  0.015753034  0.016465356            2    5.6213399    882.41492   0.97913123 
   93200   0.93071334   -6.4139038    17.587523  0.015725611  0.016465072            6    6.0792471    878.43282    0.9835698 
   93300   0.93591163    -6.350821    17.658918  0.015772524  0.016464979            5     6.101979    883.11195    0.9783584 
   93400   0.94985272   -6.3739262    17.654914  0.015752065  0.016464903            3     5.802968    885.27076   0.97597259 
   93500   0.88234244   -6.3891396    17.729508    0.0158017  0.016464841            5     5.695821    886.86005   0.97422361 
   93600   0.93093576   -6.4327745    17.721289  0.015777501  0.016464444            5    5.5751348    884.94422   0.97633272 
   93700   0.93295245   -6.3658422    17.820718  0.015849091  0.016464455            4     5.539025    890.34145   0.97041422 
   93800   0.95053017   -6.4131933    17.796502  0.015810681  0.016464509            4    5.6719388    885.66804   0.97553481 
   93900    0.9540605   -6.3822598    17.834603  0.015827656  0.016464789           10    5.9781813    883.42106   0.97801608 
   94000   0.97107653   -6.2861391    17.843649  0.015818837  0.016465456            9    6.6391694    879.90973    0.9819189 
   94100   0.95912355   -6.3661199    17.893702  0.015846353  0.016466312            4    6.1176802    881.73788   0.97988305 
   94200   0.97815012   -6.3551383    17.954963  0.015883725  0.016467163            8    5.9491501    886.16266    0.9749903 
   94300   0.93361122   -6.3346872    17.974154   0.01588384  0.016467898           14    5.8268415    888.27216   0.97267486 
   94400   0.96822041    -6.449188    17.968881   0.01586236  0.016468183           14    5.4006596    886.48387   0.97463703 
   94500   0.93304119   -6.4864664     17.95137  0.015830132  0.016468141           20    5.1759244    886.95339   0.97412108 
   94600   0.94057071   -6.3939763    17.889023  0.015758477  0.016468067           11    5.9654494    881.68819   0.97993827 
   94700    0.9040517   -6.3862041    17.877364  0.015731577  0.016467661            5    5.8960126    882.99279   0.97849043 
   94800   0.95844205   -6.3998835    17.878093  0.015715623  0.016467148           16    5.7705247    884.41102   0.97692134 
   94900   0.94043143   -6.3430968    17.867534  0.015689791  0.016466639           21    6.1903253    881.97397   0.97962074 
   95000   0.95988711   -6.4526631    17.900143   0.01570188  0.016466177           14    5.8915599    878.27142   0.98375056 
   95100   0.90805644   -6.3622886    17.939681  0.015720015  0.016465787           12    6.4063679    877.48523   0.98463196 
   95200   0.95674217   -6.4436829    17.967942   0.01572824  0.016465541           16    5.9361778    879.20818   0.98270241 
   95300   0.89496664   -6.4280113    17.979618  0.015721946  0.016464985           11    5.6165096    883.72964   0.97767458 
   95400   0.95867401   -6.4053179    18.032261  0.015751451  0.016464451            6    5.5801715     887.0138   0.97405474 
   95500   0.90523453   -6.4161712    18.052492   0.01575261   0.01646388            3    5.5819986    884.95851   0.97631696 
   95600   0.94176579   -6.4626485     18.05765  0.015740629  0.016463312           22    5.4255988    884.05819   0.97731123 
   95700   0.92850678   -6.4304045    18.111384  0.015770972  0.016462741            9    5.3427085    888.56067   0.97235904 
   95800   0.90035797   -6.3690832    18.081965  0.015728919  0.016461998           20     5.774714    885.58543   0.97562581 
   95900   0.93818382   -6.3880104      18.0428  0.015678485  0.016461249           25    5.9251492    882.15519   0.97941951 
   96000   0.93904109   -6.3724794    18.041263  0.015660819  0.016460495           49     6.056906    882.06819   0.97951611 
   96100   0.93306365   -6.4252531     17.98535  0.015596037  0.016459367           10    5.8199263    882.19787   0.97937212 
   96200   0.90849286   -6.5053884    18.048502   0.01563453  0.016457787           11    5.2349832    883.88556   0.97750211 
   96300    0.9163293   -6.4348738    18.127834  0.015686945  0.016456244            9    5.4060098    886.74253   0.97435272 
   96400   0.95378541   -6.4262576    18.286122  0.015807505  0.016455474            8    4.9737027    893.82551   0.96663162 
   96500   0.89419405   -6.4360818    18.236817  0.015748546  0.016454776           15    5.2639329    888.30708   0.97263662 
   96600   0.92263563   -6.4972336    18.297431  0.015784533  0.016453838           13    5.0630059    886.68962   0.97441086 
   96700   0.89526209   -6.4159235    18.343467  0.015807883  0.016453337            4    5.4644777    886.39635   0.97473326 
   96800   0.90190024   -6.3935576     18.37263  0.015816658  0.016452992            4    5.3964375    889.25214   0.97160295 
   96900   0.93179767   -6.4240344    18.367509  0.015795931  0.016452459            4    5.4276265    886.57552   0.97453627 
   97000   0.92646676   -6.4169892     18.22276  0.015655292  0.016451722            9    5.7809833    881.60261    0.9800334 
   97100   0.91109392   -6.4404072    18.316527  0.015719642  0.016450852            4    5.5411033    884.04518   0.97732561 
   97200   0.92244462   -6.3839624     18.45016  0.015818038  0.016450333            6    5.6462143    886.89411    0.9741862 
   97300   0.94190519   -6.3187998    18.380901  0.015742464  0.016450183            6    6.1342689    884.61458   0.97669654 
   97400   0.91213606   -6.3903215    18.361492  0.015709695  0.016449648            6      5.87628    882.86627   0.97863065 
   97500   0.93426889   -6.3526675    18.455753  0.015774148  0.016449188            2    5.8903083    886.59083   0.97451944 
   97600   0.96226765   -6.4028659    18.402163   0.01571223  0.016448868            7    5.8818356    883.92831   0.97745483 
   97700   0.94454706   -6.3874993    18.451372   0.01573812  0.016448559            2    5.9784946    882.83602   0.97866419 
   97800   0.90874197   -6.4205431    18.518667  0.015779368  0.016448172            5    5.5313739    886.08288   0.97507809 
   97900   0.93608398   -6.4617067     18.45866  0.015712172  0.016447471            6    5.5674583    882.84303   0.97865642 
   98000   0.92892919   -6.3659365    18.561168  0.015783306  0.016447048            3    5.5496403    890.12498   0.97065022 
   98100   0.91774676   -6.4248171    18.583959  0.015786577  0.016446603            4    5.3052284    888.56431   0.97235505 
   98200   0.90971599    -6.464228    18.469548  0.015673411  0.016445684            6    5.5979448    880.50067    0.9812599 
   98300   0.92330814   -6.3975195    18.523484  0.015703191    0.0164447            5    5.5447103    887.34905   0.97368674 
   98400   0.92628994   -6.3727769    18.462521  0.015635603  0.016443801            6    5.9720943    883.46484   0.97796761 
   98500   0.86016261   -6.4160097    18.439236   0.01560003  0.016442544            2    5.8667314    881.15066   0.98053607 
   98600   0.90384375    -6.406163    18.431461  0.015577638  0.016440876            9    5.6433649    885.16185   0.97609268 
   98700   0.93974609    -6.392852    18.587126  0.015693284  0.016439471           13    5.3099885    891.95705   0.96865651 
   98800    0.9201623   -6.3744462    18.653178  0.015733113   0.01643846            2    5.1908555    895.08578   0.96527061 
   98900     0.898392    -6.467161    18.553507  0.015633221  0.016436852           14    5.1221581    888.82312   0.97207193 
   99000    0.9263079   -6.4166946    18.550803  0.015615154  0.016435152            6    5.4556938    888.17862    0.9727773 
   99100   0.93955751   -6.3574918    18.570438  0.015615908  0.016433862            1    5.7437689    888.03699   0.97293245 
   99200   0.89967716    -6.409594    18.584288  0.015611801  0.016432339            5    5.5923925    885.59555   0.97561466 
   99300   0.90353056   -6.3724487     18.67079  0.015668672  0.016430978            7    5.5965064     888.3976   0.97253752 
   99400   0.93767838   -6.3594838       18.739  0.015710094  0.016430094            3    5.6386638    890.29844   0.97046109 
   99500   0.93772606   -6.4438966     18.69996  0.015661608  0.016429201            6    5.4965151    884.75987   0.97653615 
   99600   0.91367517   -6.4459207    18.728875  0.015670076   0.01642818            7    5.6170353    884.04063   0.97733065 
   99700   0.94287461   -6.3751034    18.777027  0.015694606   0.01642713           10    5.6393082    888.47404   0.97245385 
   99800    0.9420112   -6.4398636    18.846116   0.01573657  0.016426268           14    5.1123635    891.69468   0.96894152 
   99900   0.92794017   -6.4423077    18.792444  0.015676046  0.016425103            3    5.3585577    886.23884   0.97490649 
  100000   0.88562174   -6.4140241    18.792445  0.015660371  0.016423741            4    5.6511103    885.44403   0.97578161 
  100100   0.96693359   -6.4800466    18.786057  0.015639408  0.016422509           16    5.3079184    885.58398   0.97562741 
  100200    0.8876513   -6.4075342    18.807808  0.015641889  0.016421074           12    5.4992505    887.29628   0.97374464 
  100300   0.94618657   -6.4226261    18.751427  0.015579451  0.016419368            3    5.4570475    887.69939   0.97330246 
  100400   0.88448833   -6.4377079    18.757415  0.015568903  0.016417444            4     5.276432    887.90623   0.97307573 
  100500    0.8930595   -6.4090722    18.810985  0.015597832  0.016415287            3    4.9337945    895.23608   0.96510856 
  100600   0.94625144   -6.4011941    18.813588  0.015584483  0.016413323           11    5.1380738    894.66119   0.96572872 
  100700   0.92801909   -6.4428735    18.781154  0.015542166  0.016411302            7    5.2270507    889.73448   0.97107623 
  100800   0.90359206   -6.4507149    18.720041  0.015476224  0.016409056           10    5.5576515    883.61539   0.97780099 
  100900   0.93072446   -6.3823383    18.848168  0.015566706  0.016407012           10    5.5480016     889.4644   0.97137108 
  101000   0.95024798   -6.3854519    18.886204  0.015582676  0.016405396            5    5.6014317    888.44152   0.97248944 
  101100   0.90458746   -6.3942229    18.824078  0.015516055  0.016403692            8    5.7688777    884.13189   0.97722977 
  101200   0.98427223   -6.4717508    18.834962  0.015509685  0.016401952           14    5.7897696    879.26328   0.98264083 
  101300   0.91598054   -6.3841506    18.864655  0.015518801  0.016400171            8    6.1190249    880.39199   0.98138103 
  101400   0.96988715   -6.3671455    18.956953   0.01557935  0.016398777           13    5.9480081    884.99725   0.97627422 
  101500    0.9427624   -6.3582197    18.914273  0.015528959  0.016397529           14    6.3841569    878.39708   0.98360983 
  101600   0.94255756   -6.4170361    18.927153  0.015524239  0.016396052            6    6.1696559    877.22884   0.98491974 
  101700   0.94376156   -6.3751804    19.018056  0.015583461  0.016394906            9    6.2474486    878.79794   0.98316116 
  101800   0.94079222   -6.4270963    19.070567  0.015611139   0.01639379            5    5.7842696    882.10596   0.97947416 
  101900    0.9510798   -6.4088193    19.139723  0.015652374  0.016392781            7    5.8107769     882.9007   0.97859249 
  102000   0.91033612   -6.3872099    19.080068  0.015588291  0.016391796            8    5.9890985    882.52461   0.97900953 
  102100   0.97727873   -6.4119129    19.001051   0.01550853  0.016390364            2    6.3348228    875.80604    0.9865198 
  102200   0.96065032   -6.4451366    19.089777  0.015565702  0.016389183            5    6.1771019    875.38815   0.98699075 
  102300   0.96564743   -6.3395534    19.100487   0.01555921  0.016388065           10    6.4872143    878.39675    0.9836102 
  102400   0.93384287   -6.3489266    19.159395  0.015591955  0.016387208            6    6.1555384    882.47057   0.97906948 
  102500   0.90529635   -6.3844184    19.096634  0.015525718  0.016385863            4    6.0807372    880.46725   0.98129715 
  102600   0.94961218   -6.3652218    19.167253  0.015567944  0.016384415            3    6.0110968    884.39441   0.97693969 
  102700     0.919429   -6.3273435    19.180099  0.015563209  0.016383164            3     6.077051    885.30401   0.97593594 
  102800   0.95362756   -6.3364874    19.230412  0.015588856  0.016381853            3    5.9260978    887.57249   0.97344162 
  102900   0.93009024   -6.3981398      19.3083  0.015636783  0.016380644            3    5.5818051    886.83033   0.97425626 
  103000   0.97684513   -6.4045859    19.366857  0.015668978  0.016379584            4     5.334384    891.66012   0.96897908 
  103100   0.89148256   -6.3600484    19.324295  0.015619379  0.016378358            2    5.5193788     891.1895   0.96949078 
  103200   0.91826232   -6.3949622    19.309795  0.015592535  0.016376729            4    5.3799411    890.24427   0.97052015 
  103300   0.91113532    -6.346816    19.344771  0.015605656  0.016375149            3    5.4677299    893.02829   0.96749455 
  103400   0.89183203   -6.4027417    19.292632  0.015548543  0.016373334            3    5.3957548    888.59147   0.97232533 
  103500   0.95110735   -6.3667728    19.389523  0.015611532  0.016371568            7    5.2979215    894.28628   0.96613357 
  103600   0.94131872   -6.4159648    19.238829  0.015475249  0.016369739            5    5.6911697    884.34601   0.97699315 
  103700   0.94561886   -6.4373211    19.105444  0.015353137  0.016367401            3    5.8063812    881.19168   0.98049042 
  103800   0.90478438   -6.3746239    19.223318  0.015432978  0.016364952            4    5.9213886    883.51926   0.97790737 
  103900   0.94377195   -6.4442567    19.271498  0.015456768   0.01636273            4    5.4630868    885.17853   0.97607429 
  104000   0.92338007   -6.4396671    19.268379  0.015439406  0.016360272            4    5.5421753    885.25902   0.97598553 
Loop time of 189.513 on 12 procs for 100000 steps with 864 atoms

Performance: 91180.991 tau/day, 527.668 timesteps/s
99.4% CPU use with 12 MPI tasks x no OpenMP threads

MPI task timing breakdown:
Section |  min time  |  avg time  |  max time  |%varavg| %total
---------------------------------------------------------------
Pair    | 9.295      | 10.015     | 10.86      |  16.6 |  5.28
Neigh   | 0.97968    | 1.0124     | 1.0596     |   2.7 |  0.53
Comm    | 7.5317     | 8.4684     | 9.302      |  19.9 |  4.47
Output  | 1.8885     | 1.8895     | 1.8971     |   0.2 |  1.00
Modify  | 166.11     | 166.39     | 166.6      |   1.1 | 87.80
Other   |            | 1.742      |            |       |  0.92

Nlocal:        72.0000 ave          77 max          65 min
Histogram: 1 0 1 1 2 0 2 2 1 2
Nghost:        1555.00 ave        1580 max        1531 min
Histogram: 2 0 2 0 1 1 3 1 1 1
Neighs:        8057.50 ave        8800 max        6986 min
Histogram: 1 0 0 3 1 2 1 0 1 3
FullNghs:      16115.2 ave       17137 max       14497 min
Histogram: 1 0 1 1 2 0 1 3 1 2

Total # of neighbors = 193383
Ave neighs/atom = 223.82292
Neighbor list builds = 5368
Dangerous builds = 0

#clear
#
#next RN
#
#jump SELF



Total wall time: 0:03:10
