
units lj                  # Use reduced LJ style units
atom_style atomic         # Uncharged point particles
atom_modify map hash      # Needed for indexing of clusters etc
                          # Used to be able to find where atoms are in relation to each other.

# Define a lattice with which to populate the simulation cell. With units
# set to 'lj' the second argument to the lattice command is the reduced
# density rho* and the spacings are multiples of that required to acheive
# that density. Also define a simulation cell called 'box' in lattice units
# and fill it with atoms. Here we're creating a box which is ten lattice
# constants in each direction.
lattice fcc 1.0 spacing 1 1 1                 # All equal sizes - gives the right reduced density.
Lattice spacing in x,y,z = 1.5874011 1.5874011 1.5874011

region box block 0 6 0 6 0 6 units lattice # Defines a region, "box", in lattice units
create_box 1 box                              # Creates a simulation box as specified above,
Created orthogonal box = (0.0000000 0.0000000 0.0000000) to (9.5244063 9.5244063 9.5244063)
  2 by 2 by 3 MPI processor grid
                                              # with one type of atom
create_atoms 1 box                            # Creates particles on lattice points
Created 864 atoms
  using lattice units in orthogonal box = (0.0000000 0.0000000 0.0000000) to (9.5244063 9.5244063 9.5244063)
  create_atoms CPU = 0.001 seconds


# Set the mass of the first (and only) atom type.
mass 1 1.0

# Lennard-Jones interactions between particles, 3.5 sigma cut-off. Apply
# long range tail corrections to energy and pressure and set all coefficients
# to unity since we work in reduced units here. Note that this doesn't shift
# the potential such that it goes to zero at the cutoff. That would require
# pair_modify('shift', 'yes').
pair_style lj/cut  3.5      # non-GPU version
pair_modify tail  yes
pair_coeff 1  1  1.0  1.0   # Intearaction between 1 and 1 set with epsilon = 1 and sigma = 1

write_data data.*
System init for write_data ...
Neighbor list info ...
  update every 1 steps, delay 10 steps, check yes
  max neighbors/atom: 2000, page size: 100000
  master list distance cutoff = 3.8
  ghost atom cutoff = 3.8
  binsize = 1.9, bins = 6 6 6
  1 neighbor lists, perpetual/occasional/extra = 1 0 0
  (1) pair lj/cut, perpetual
      attributes: half, newton on
      pair build: half/bin/atomonly/newton
      stencil: half/bin/3d
      bin: standard

#############################
#   M E L T   S Y S T E M   #
#############################

velocity all create 2.4 2750902 mom yes dist gaussian # Assign velocities
                                                    # Temperature 2.4, random number seed, zero linear momentum
						                                                        # Gaussian distribution

timestep 0.002   # simulation timestep
thermo 100       # output thermodynamic data every 100 steps

# Define a fix  in this case with index 1 applied to all
# particles in the simulation. This fix is for simulations
# in the anisotropic NPT ensemble. Note that we use the MTK
# correction.
fix 1 all npt temp 2.4 2.4 0.1 iso 5.68 5.68 0.5 mtk yes tchain 5 pchain 5 # Use NPT ensemble
                                                                         # Set temperature and pressure and damping
                                                                         # Numbers of thermostats in chain and in barostat
run 1000         # run for 10000 steps
Per MPI rank memory allocation (min/avg/max) = 3.633 | 3.633 | 3.634 Mbytes
Step Temp E_pair E_mol TotEng Press Volume 
       0          2.4   -8.3859253            0    -4.790092     -2.24275          864 
     100    1.3007594   -6.4407842            0   -4.4919034    5.3582762    891.69205 
     200    1.5828213   -6.0796178            0   -3.7081338    6.4338598    907.46239 
     300    1.7629056     -5.73851            0   -3.0972122    5.5953229    954.02439 
     400    1.8733232   -5.2785237            0   -2.4717912    6.0585808    994.36537 
     500      2.02574   -4.9360708            0   -1.9009777    5.7478153    1042.8978 
     600    2.2112838   -4.6895875            0   -1.3765009    5.7138268    1079.0368 
     700    2.3146746   -4.4629638            0  -0.99497044    5.6088298    1118.0222 
     800    2.4734008     -4.39503            0   -0.6892229    5.7937797    1123.7282 
     900    2.4206618   -4.2767239            0  -0.64993368    5.5531987    1146.9555 
    1000    2.3618098   -4.2459295            0  -0.70731524    5.7000582    1143.3852 
Loop time of 0.19876 on 12 procs for 1000 steps with 864 atoms

Performance: 869390.415 tau/day, 5031.195 timesteps/s
99.4% CPU use with 12 MPI tasks x no OpenMP threads

MPI task timing breakdown:
Section |  min time  |  avg time  |  max time  |%varavg| %total
---------------------------------------------------------------
Pair    | 0.067496   | 0.082578   | 0.10286    |   4.6 | 41.55
Neigh   | 0.011876   | 0.013686   | 0.016314   |   1.4 |  6.89
Comm    | 0.060689   | 0.083878   | 0.10062    |   5.2 | 42.20
Output  | 0.00023824 | 0.00024407 | 0.00027176 |   0.0 |  0.12
Modify  | 0.016007   | 0.01663    | 0.016958   |   0.2 |  8.37
Other   |            | 0.001744   |            |       |  0.88

Nlocal:        72.0000 ave          80 max          66 min
Histogram: 2 1 2 2 1 0 2 0 0 2
Nghost:        1314.75 ave        1327 max        1295 min
Histogram: 1 0 0 2 3 0 0 1 2 3
Neighs:        6211.67 ave        7136 max        5326 min
Histogram: 2 0 0 2 1 4 1 0 0 2

Total # of neighbors = 74540
Ave neighs/atom = 86.273148
Neighbor list builds = 80
Dangerous builds = 2

# Equilibrate just above the melting temperature to avoid step fn in T

fix 1 all npt temp 1.25 1.25 0.1 iso 5.68 5.68 0.5 mtk yes tchain 5 pchain 5
run 1000
Per MPI rank memory allocation (min/avg/max) = 3.634 | 3.634 | 3.634 Mbytes
Step Temp E_pair E_mol TotEng Press Volume 
    1000    2.3618098   -4.2459295            0  -0.70731524    5.7000582    1143.3852 
    1100    1.8617945   -4.5967525            0    -1.807293    5.9593679    1083.5566 
    1200      1.66126   -5.0091582            0   -2.5201524    5.9308167    1028.0056 
    1300    1.4533368   -5.3154554            0   -3.1379734    5.5185254    997.93023 
    1400    1.3100587   -5.5224566            0    -3.559643    5.2858775     978.0358 
    1500    1.3306301   -5.7450087            0   -3.7513736    5.2687861    956.68836 
    1600    1.2302857    -5.777427            0   -3.9341343     5.385203    950.58576 
    1700    1.2545134   -5.8251615            0   -3.9455694    5.6370291    940.07281 
    1800    1.2669685   -5.8434457            0   -3.9451925    6.1076728    931.13358 
    1900    1.2975362   -5.8185374            0   -3.8744858    5.5765884    942.23221 
    2000    1.2225624   -5.8503078            0   -4.0185867    5.1330896    948.19804 
Loop time of 0.161393 on 12 procs for 1000 steps with 864 atoms

Performance: 1070680.252 tau/day, 6196.066 timesteps/s
99.8% CPU use with 12 MPI tasks x no OpenMP threads

MPI task timing breakdown:
Section |  min time  |  avg time  |  max time  |%varavg| %total
---------------------------------------------------------------
Pair    | 0.069906   | 0.076957   | 0.082099   |   1.4 | 47.68
Neigh   | 0.0098419  | 0.010562   | 0.011122   |   0.4 |  6.54
Comm    | 0.051633   | 0.05712    | 0.064632   |   1.7 | 35.39
Output  | 0.00018257 | 0.00018793 | 0.00021496 |   0.0 |  0.12
Modify  | 0.014268   | 0.01473    | 0.015166   |   0.2 |  9.13
Other   |            | 0.001836   |            |       |  1.14

Nlocal:        72.0000 ave          79 max          65 min
Histogram: 1 1 0 4 0 1 1 3 0 1
Nghost:        1466.08 ave        1476 max        1447 min
Histogram: 1 1 0 0 2 0 0 4 1 3
Neighs:        7466.67 ave        8131 max        6694 min
Histogram: 1 0 2 0 3 1 3 0 0 2

Total # of neighbors = 89600
Ave neighs/atom = 103.70370
Neighbor list builds = 67
Dangerous builds = 0


# Small amount of linear quench

fix 1 all npt temp 1.25 ${temp} 0.1 iso 5.68 5.68 0.5 mtk yes tchain 5 pchain 5
fix 1 all npt temp 1.25 0.88 0.1 iso 5.68 5.68 0.5 mtk yes tchain 5 pchain 5
run 2000
Per MPI rank memory allocation (min/avg/max) = 3.634 | 3.634 | 3.634 Mbytes
Step Temp E_pair E_mol TotEng Press Volume 
    2000    1.2225624   -5.8503078            0   -4.0185867    5.1330896    948.19804 
    2100    1.2532732   -5.8619413            0   -3.9842073    5.4162512    941.40051 
    2200     1.227886   -5.9065997            0   -4.0669025    5.8168742    929.21275 
    2300    1.1821236    -5.917071            0    -4.145938    6.2940046    919.69456 
    2400    1.1852332   -5.9673943            0   -4.1916022    5.9252814    921.52259 
    2500     1.149035    -5.963573            0   -4.2420154      5.75539    922.94363 
    2600    1.1276659    -5.997279            0   -4.3077379    5.5698299    923.07971 
    2700    1.1046091   -6.0039876            0   -4.3489916    5.6314868    921.29157 
    2800    1.1038641   -6.0697641            0   -4.4158844    5.7220977    914.68449 
    2900    1.1096542   -6.0931863            0   -4.4306315    5.7885422    911.07013 
    3000     1.059407   -6.1542129            0   -4.5669416     5.589287    908.93588 
    3100    1.0213525   -6.1754392            0   -4.6451835    5.6314197    906.64014 
    3200    1.0274151   -6.2451576            0   -4.7058187    6.0712117    893.41697 
    3300    1.0241896   -6.1810732            0    -4.646567     5.777195     903.1846 
    3400   0.97949509   -6.2077013            0   -4.7401592    5.4497481    905.80689 
    3500   0.97185778   -6.2579925            0   -4.8018931    5.5825786    898.99551 
    3600   0.97564133   -6.2641702            0    -4.802402    5.6922737    897.02764 
    3700   0.94419341   -6.3116635            0   -4.8970126    6.2448946     883.9221 
    3800   0.93263161   -6.3324087            0   -4.9350805    5.9473725    886.45388 
    3900   0.93289443   -6.4567528            0   -5.0590307     5.311587    887.34866 
    4000   0.85651734   -6.4524074            0   -5.1691184      5.04735    890.23869 
Loop time of 0.338555 on 12 procs for 2000 steps with 864 atoms

Performance: 1020809.889 tau/day, 5907.465 timesteps/s
99.9% CPU use with 12 MPI tasks x no OpenMP threads

MPI task timing breakdown:
Section |  min time  |  avg time  |  max time  |%varavg| %total
---------------------------------------------------------------
Pair    | 0.15475    | 0.16589    | 0.18039    |   1.9 | 49.00
Neigh   | 0.017291   | 0.018126   | 0.018975   |   0.5 |  5.35
Comm    | 0.10498    | 0.11962    | 0.13093    |   2.4 | 35.33
Output  | 0.0003772  | 0.00038561 | 0.00044114 |   0.0 |  0.11
Modify  | 0.02902    | 0.030082   | 0.03087    |   0.3 |  8.89
Other   |            | 0.004452   |            |       |  1.32

Nlocal:        72.0000 ave          74 max          70 min
Histogram: 2 0 2 0 0 4 0 2 0 2
Nghost:        1539.50 ave        1548 max        1524 min
Histogram: 1 0 2 0 0 2 0 0 5 2
Neighs:        7973.33 ave        8785 max        7634 min
Histogram: 4 0 3 2 1 1 0 0 0 1

Total # of neighbors = 95680
Ave neighs/atom = 110.74074
Neighbor list builds = 112
Dangerous builds = 0

#############################
# F R E E Z E  S Y S T E M  #
#############################

# Define solid atoms. This closely follows ten Wolde  Ruiz-Montero and Frenkel  Faraday Discuss  1996  104  93-110
# Compute components of the per-atom q6 vector
compute q6 all orientorder/atom degrees 1 6 components 6 nnn NULL cutoff 1.3 # compute the Q6 parameter.
                                                                             # Use all neighbours within 1.3 unit cell.

# get number of connections
compute coord_number all coord/atom orientorder q6 0.5

# An atom is solid if it has 8 or more connections (of a possible 14)
variable is_solid atom c_coord_number>=8
group solid dynamic all var is_solid    # Must be dynamic to update
dynamic group solid defined

# do clustering
compute cluster solid cluster/atom 1.3 # Create a cluster where all atoms within are solid and max 1.3 units from another member

# define chunks one chunk per cluster
compute clus_chunks solid chunk/atom c_cluster nchunk every compress yes  # Says which atoms are in which chunk

# count the size of each chunk
compute size_chunks solid property/chunk clus_chunks count


# Find the maximum entry in the vector of chunk sizes
variable max_n equal max(c_size_chunks)


# Thermo style which includes this variable
# thermo_style custom step temp pe vol v_max_n

thermo ${N}  # Print the thermo information every 100 steps
thermo 100  

# Reset the npt fix at a lower temperature (below freezing)

compute myRDF all rdf 100
fix 2 all ave/time 1 50 100 c_myRDF[*] file pcf.rdf mode vector


compute msd all msd com yes
variable twopoint equal c_msd[4]/6/(step*dt+1.0e-6)
fix 9 all vector 10 c_msd[4]
variable fit equal slope(f_9)/6/(10*dt)
thermo_style custom step temp pe c_msd[4] v_twopoint v_fit v_max_n press vol density


fix 1  all npt temp  ${temp} ${temp}  0.1  iso  5.68  5.68  0.5  mtk yes tchain  5  pchain  5
fix 1  all npt temp  0.88 ${temp}  0.1  iso  5.68  5.68  0.5  mtk yes tchain  5  pchain  5
fix 1  all npt temp  0.88 0.88  0.1  iso  5.68  5.68  0.5  mtk yes tchain  5  pchain  5

dump dmp2 all dcd ${N} traj.dcd
dump dmp2 all dcd 100 traj.dcd
dump dmp3 all dcd ${N} traj_unwrap.dcd
dump dmp3 all dcd 100 traj_unwrap.dcd
dump_modify dmp3 unwrap yes


# fix rnuntil all halt ${N} v_max_n >= 3980 error soft message no   # Stop when solidified

run 100000 # 5000000  # Run for this many steps
Neighbor list info ...
  update every 1 steps, delay 10 steps, check yes
  max neighbors/atom: 2000, page size: 100000
  master list distance cutoff = 3.8
  ghost atom cutoff = 3.8
  binsize = 1.9, bins = 6 6 6
  5 neighbor lists, perpetual/occasional/extra = 1 4 0
  (1) pair lj/cut, perpetual
      attributes: half, newton on
      pair build: half/bin/atomonly/newton
      stencil: half/bin/3d
      bin: standard
  (2) compute orientorder/atom, occasional
      attributes: full, newton on
      pair build: full/bin/atomonly
      stencil: full/bin/3d
      bin: standard
  (3) compute coord/atom, occasional
      attributes: full, newton on
      pair build: full/bin/atomonly
      stencil: full/bin/3d
      bin: standard
  (4) compute cluster/atom, occasional
      attributes: full, newton on
      pair build: full/bin/atomonly
      stencil: full/bin/3d
      bin: standard
  (5) compute rdf, occasional, copy from (1)
      attributes: half, newton on
      pair build: copy
      stencil: none
      bin: none
Per MPI rank memory allocation (min/avg/max) = 9.699 | 9.700 | 9.702 Mbytes
Step Temp PotEng c_msd[4] v_twopoint v_fit v_max_n Press Volume Density 
    4000   0.85651734   -6.4524074 7.9068697e-31 1.6472643e-32 8.3333333e+20           10      5.04735    890.23869   0.97052623 
    4100   0.89801768   -6.4316801  0.042983291 0.00087364402  0.038331499            3    5.4873674    885.25452    0.9759905 
    4200   0.86795865   -6.4758346   0.07382137 0.0014647096  0.033250714            6    5.6370009    879.75587   0.98209064 
    4300   0.91034163   -6.4613576  0.094284785 0.0018272243  0.027219437            2    5.5644809    881.97745   0.97961688 
    4400    0.8555993   -6.4153821   0.11633899 0.0022033897  0.023516614            3    5.6695309    883.32287    0.9781248 
    4500   0.83035553   -6.4391357   0.13493039 0.0024987106  0.021521071            3    5.9520948    876.85638    0.9853381 
    4600   0.88856677   -6.5029549   0.15166263 0.0027475112  0.019943792            4    5.4587949    879.81803   0.98202124 
    4700   0.86519817   -6.4548365   0.17111744 0.0030339968  0.018978771            7    5.7385401    880.06878   0.98174145 
    4800   0.92935502   -6.4543601   0.19356267 0.0033604626  0.018325326            6    5.7848553    879.67756   0.98217807 
    4900   0.85998277   -6.3673859   0.22319802 0.0037958842  0.018397016            4    5.9169598    883.92017   0.97746384 
    5000   0.86398969   -6.4332476   0.23864387 0.0039773975  0.018373723            4    5.9219788    878.46747   0.98353101 
    5100   0.89219746   -6.4332947   0.25302143 0.0041343366   0.01807145            3    5.7721958    880.40259   0.98136921 
    5200   0.85105165   -6.4714539   0.26517653 0.0042496234  0.017654315            1    5.4436713    882.01087   0.97957976 
    5300   0.88133895   -6.5070182   0.27436397 0.0043138986  0.017093304            5    5.5264592    879.01101   0.98292284 
    5400   0.84520176   -6.5258062   0.29565592  0.004562591  0.016624219            1      5.46845    877.82228    0.9842539 
    5500   0.86278071   -6.4519418   0.31247074 0.0047344046  0.016314254            2    5.5164881    883.69313   0.97771497 
    5600   0.89496257   -6.4716421   0.32129566  0.004781185  0.015947084            2    5.2656426    885.40939   0.97581979 
    5700   0.86260941   -6.5160964   0.32758922 0.0047893157   0.01549255            4    5.2343134    882.86184   0.97863558 
    5800   0.84696945   -6.4323214   0.35482887 0.0050981155  0.015177244            3    5.7425601    881.03459   0.98066524 
    5900   0.86108657   -6.4665832   0.37352689 0.0052758031  0.015019771            3    5.5772101     881.1111   0.98058008 
    6000   0.87900708   -6.5232746    0.3862753 0.0053649343   0.01490008            4    5.4186822    879.02151    0.9829111 
    6100   0.83117784    -6.504001    0.4031678 0.0055077564  0.014738762            6    5.5344542    878.21231   0.98381677 
    6200   0.90414834   -6.4844968   0.42070201 0.0056545965  0.014637187            5    5.6115008    879.47192   0.98240771 
    6300   0.86984385   -6.4706705   0.44386139  0.005871182  0.014560436            2    6.3614115    869.76016    0.9933773 
    6400   0.91569695    -6.531821   0.47233579 0.0061502051   0.01460841            6    6.0539957    869.80574   0.99332524 
    6500   0.84547909    -6.491989   0.49987665 0.0064086746   0.01472674            6    6.0800217    871.37952   0.99153123 
    6600   0.89463253   -6.4782605   0.51883677 0.0065509689   0.01483153           10    5.6884149    878.36494   0.98364582 
    6700    0.9188268   -6.5084844   0.53546122 0.0066599649  0.014915453            4    5.4332299    880.32323   0.98145768 
    6800    0.9007618   -6.5253498    0.5562422 0.0068166932  0.014999401            4    5.4724333    878.44293   0.98355849 
    6900   0.83602054   -6.4760895   0.56951674 0.0068782209  0.015058425            3     6.090616    873.03651   0.98964933 
    7000    0.9130324   -6.5087459   0.58625066  0.006979174  0.015083583            5    5.6224248    877.69192   0.98440009 
    7100   0.88957337   -6.4673632   0.60620001 0.0071150231  0.015111495            2    5.4088627    883.22789   0.97822998 
    7200   0.88276445   -6.4791689   0.63023833 0.0072944247  0.015150863            2    5.4414357    881.80487    0.9798086 
    7300   0.83085802   -6.4936312    0.6473702 0.0073900703    0.0151909            3    5.5790491    878.88325   0.98306572 
    7400   0.86931642   -6.4520956   0.65634163 0.0073912341  0.015196334            2    5.5966859    881.67325   0.97995488 
    7500   0.89286524   -6.4397877   0.67194888 0.0074660982  0.015187856            3    5.6705203    882.08554   0.97949684 
    7600   0.84270919   -6.4621313   0.68985526 0.0075642019   0.01516188            2    5.5700348    881.11392   0.98057695 
    7700   0.88468715   -6.5399223   0.71300012  0.007716451  0.015153668            3    5.2215419    881.31611   0.98035198 
    7800   0.86064838   -6.5515499   0.73722305 0.0078763142  0.015167292            4    5.1326735    881.35047   0.98031376 
    7900   0.85808087   -6.4910011   0.75598824  0.007974559  0.015174077            2    5.4512083    880.98174   0.98072407 
    8000   0.86474186   -6.4234843   0.78263893 0.0081524883  0.015204858            5    5.6997413      882.815    0.9786875 
    8100   0.85440918   -6.5221613   0.79930613 0.0082233136  0.015245219            4    5.3594694    880.12577   0.98167788 
    8200   0.86097304   -6.5043718   0.80296937 0.0081602574  0.015252923           16    5.5225615    878.88725   0.98306125 
    8300   0.92682928   -6.5235843   0.80687178 0.0081011218  0.015222024           17    5.6295958    876.26416   0.98600404 
    8400   0.90537046   -6.5703818   0.80873999 0.0080232137  0.015155505           12    5.7153998    871.37277    0.9915389 
    8500   0.85853425   -6.5509177   0.82873774 0.0081248793  0.015083195            7    5.7287557     871.9829   0.99084512 
    8600   0.86439246   -6.5050693   0.85251728 0.0082608259  0.015034188            6    5.4350369    880.26897   0.98151818 
    8700   0.84844445   -6.5074955   0.85922528 0.0082301268  0.014970612            7    4.9343052    887.57264   0.97344145 
    8800   0.83160957   -6.5678978   0.87471455 0.0082832812  0.014899059            3    5.1549308    878.65609   0.98331987 
    8900    0.8645927    -6.525479   0.90610409 0.0084841202  0.014861566            5    5.3017122     880.4564   0.98130924 
    9000   0.88414088   -6.5055846   0.91567734 0.0084784934  0.014826847            6    5.4596621    879.60745   0.98225635 
    9100   0.89921015   -6.5095563   0.92540928 0.0084744435  0.014785878            4    5.5459815    878.35972   0.98365166 
    9200   0.85136318   -6.5082256   0.91737079 0.0083095176  0.014717659            4    5.7962485    873.84393   0.98873491 
    9300   0.88300752   -6.5037174   0.92338312 0.0082740419  0.014616953            5    5.9000814    873.70037   0.98889737 
    9400   0.90068273    -6.449062   0.95722035 0.0084859956  0.014546107            5     6.087153    876.17724   0.98610185 
    9500   0.86531853   -6.4874087   0.97615553 0.0085627674  0.014490649            4    5.8934755    874.17655   0.98835871 
    9600   0.90751336   -6.4925636    1.0024588 0.0087018989  0.014455414            9     6.052002    873.06246   0.98961991 
    9700   0.92048564   -6.4714404    1.0121142 0.0086951391  0.014421093            4    6.4605602    868.43175   0.99489684 
    9800   0.90097534   -6.5612135    1.0444149 0.0088810783  0.014395483           15    5.7695876    872.50626   0.99025078 
    9900   0.89693393   -6.4884569    1.0676276 0.0089867636  0.014389574            8    6.0073879    874.19021   0.98834326 
   10000   0.90574049   -6.4209142    1.0815781 0.0090131502  0.014381714            5    5.9197019    880.30756   0.98147516 
   10100   0.89699012   -6.4946774    1.0973931  0.009054398  0.014374682            3    6.1003499    871.87447   0.99096834 
   10200   0.88376936   -6.5036129    1.1033175 0.0090140312  0.014358633            3    6.2429138    868.80355   0.99447107 
   10300   0.92248445   -6.5231841    1.1142777 0.0090151912  0.014335745            5    6.0237752    870.25336   0.99281433 
   10400   0.89487086   -6.4924084    1.1184499 0.0089619376   0.01430245            4    5.8281607    875.63735   0.98670985 
   10500   0.89491607    -6.558893    1.1215792 0.0089014215  0.014251269            6    5.7651514    871.73211   0.99113017 
   10600   0.85168763   -6.5281208    1.1489838 0.0090328908  0.014206561            2    5.9613194    870.57889   0.99244309 
   10700   0.88226844   -6.5232057    1.1826883 0.0092109676   0.01417962            6    5.5514261    876.65099   0.98556895 
   10800   0.85876304   -6.5004196    1.2019536 0.0092743326  0.014161988            5    5.5305845    879.28448   0.98261714 
   10900   0.83100047   -6.5545062    1.2158818 0.0092957318  0.014139081            8    5.3339437    877.57411   0.98453224 
   11000    0.8744458   -6.5533185    1.2388305 0.0093850788   0.01412337            5    4.8417545    885.00996    0.9762602 
   11100   0.88064937   -6.5331185    1.2305283 0.0092382003  0.014094221            7    4.8408367    887.49183   0.97353009 
   11200   0.88763524   -6.4478191      1.24356 0.0092526781  0.014054054           13    5.3722143    885.79813   0.97539153 
   11300   0.86779414   -6.5198561    1.2551214 0.0092560568  0.014015219           11    5.4917527    878.03267   0.98401805 
   11400   0.88915518   -6.4904153    1.2837934 0.0093844542    0.0139892            3    5.4462699    881.71341   0.97991024 
   11500   0.90715629   -6.4613873    1.3160683 0.0095367266  0.013970149            2    5.1863655    887.78851   0.97320475 
   11600   0.86011555   -6.4277387    1.3495765 0.0096952328  0.013975127            9    5.4040626     885.9244   0.97525252 
   11700   0.86231016   -6.4897846    1.3555969 0.0096552479  0.013969866            3    5.3674802    881.59585   0.98004091 
   11800   0.83101001   -6.5317795    1.3756571 0.0097150918  0.013968903            4    5.1847291    880.96983   0.98073733 
   11900   0.81829711   -6.5182966    1.3900601 0.0097343141  0.013965074            5    5.1459566    882.91757    0.9785738 
   12000   0.87626076    -6.508703    1.3881992 0.0096402717  0.013951712            4    5.1641629    884.48935   0.97683482 
   12100   0.91642727   -6.4684274    1.4015683 0.0096526737  0.013935159            3    5.7854731    878.34863   0.98366408 
   12200   0.86144196   -6.4744915    1.4142356 0.0096600789  0.013921395            2    5.9506763    875.15941   0.98724871 
   12300   0.87161095   -6.5139335    1.4260579 0.0096616383  0.013903506            2    5.5540471    877.67409   0.98442009 
   12400   0.92138916   -6.4959551    1.4511294 0.0097522133   0.01388898            2    5.4929376    880.50733   0.98125247 
   12500   0.84352142   -6.4512623    1.4763076   0.00984205   0.01388089            2     5.823022    877.64155   0.98445658 
   12600    0.8623814     -6.53878     1.492649 0.0098720169  0.013872312            8    5.6085604    875.44008   0.98693219 
   12700   0.86835669   -6.4621142    1.5475338  0.010154421  0.013880422            4    5.7115202    879.26781   0.98263577 
   12800   0.87623131    -6.483358    1.5802184   0.01028788  0.013905138            6    5.6770097    878.31179   0.98370534 
   12900   0.86359457   -6.5091757     1.603118  0.010356059  0.013932349            3    5.4869759    879.27808   0.98262429 
   13000   0.89783376   -6.4737455    1.6191839  0.010379384  0.013963157            4    5.3978548    882.96203   0.97852453 
   13100   0.89776783    -6.462943    1.6455451  0.010467844  0.013991128            5     5.400766    883.92285   0.97746087 
   13200   0.86271017   -6.4745676    1.6579108  0.010466608  0.014021378            3     5.742102    877.99764   0.98405732 
   13300    0.9047384    -6.491731    1.6726673  0.010480371  0.014049497            8    5.5992383    879.92691   0.98189973 
   13400   0.91105354   -6.3963051    1.6851492  0.010479783   0.01407383            8    6.3507723    875.17006    0.9872367 
   13500   0.89903866    -6.429448    1.7042958  0.010520344  0.014098911            2    6.6860204    868.23607   0.99512106 
   13600   0.89942902   -6.4798766    1.7185389  0.010530263  0.014124431           14     6.055778    873.72389   0.98887075 
   13700   0.85615435   -6.4615369    1.7003302  0.010342641  0.014134853            4    5.9939577    875.19682   0.98720651 
   13800   0.91953203   -6.4731899    1.7092758  0.010321713  0.014129558           10     5.995334    875.32793   0.98705865 
   13900   0.86973824   -6.4852357    1.7306202   0.01037542  0.014128661            2    5.8845114    875.43101   0.98694242 
   14000   0.91528181   -6.5487991    1.7326171  0.010313196  0.014121043            3    5.9094728    871.04036    0.9919173 
   14100   0.86934732   -6.4768002    1.7522963  0.010356361  0.014116073            5    6.1055173    872.49727   0.99026098 
   14200   0.90365994   -6.4637123    1.7876547  0.010490931  0.014112518            5    5.8464401    878.32462   0.98369097 
   14300   0.87706026   -6.4152841    1.8118059  0.010558309   0.01411782            2    6.0318556    878.83857    0.9831157 
   14400   0.89685205   -6.4602918    1.8280936  0.010579245  0.014123122            2    5.8014964     878.5787   0.98340649 
   14500   0.86145924   -6.4856874    1.8466414  0.010612881  0.014126515            4    5.5536872    879.51436   0.98236031 
   14600   0.90514476   -6.4824951    1.8684932  0.010664915   0.01413038            1    5.3036992    884.23615   0.97711454 
   14700   0.84627481   -6.4744803    1.8904451  0.010716809  0.014134089            5    5.8241123    876.80141   0.98539987 
   14800   0.85927822   -6.4934287    1.8831038  0.010603062  0.014135658            2     5.862325    874.08682   0.98846016 
   14900   0.86758221   -6.5579133     1.904157  0.010649647  0.014134847            3    5.4862687    874.90364   0.98753733 
   15000   0.89562753   -6.4943902    1.9293374  0.010718541  0.014135378            3    5.5994794    878.94508   0.98299657 
   15100   0.82876219   -6.4499742    1.9547319  0.010787703  0.014138451            6    5.9220756    876.32301   0.98593782 
   15200   0.86218336   -6.4476619    1.9630799  0.010762499   0.01414136            5    5.7250907    880.01058   0.98180637 
   15300   0.87130688   -6.4901279    1.9632174  0.010692905  0.014137239           11    5.2385046    884.58725   0.97672672 
   15400   0.82006689   -6.4870007    1.9668925  0.010643358  0.014128252            7    5.6280488    877.61779   0.98448324 
   15500   0.90098994   -6.5905687    1.9819797  0.010655804   0.01411575           13    5.3065913    875.54249   0.98681675 
   15600   0.79594946   -6.5307541    1.9870567  0.010614619   0.01410204           18    5.7589167    872.69049   0.99004173 
   15700    0.8756181    -6.542435    1.9799111  0.010509082  0.014084942            8    5.6443857    873.44297    0.9891888 
   15800   0.88541556   -6.5720063    1.9898565  0.010495023  0.014061649           15    5.4205316    874.89548   0.98754653 
   15900   0.87403282    -6.543213    1.9994344  0.010479216  0.014037721           15    5.5213548    875.28252   0.98710986 
   16000   0.88498431   -6.5111834    2.0221968  0.010532275  0.014013448           27    5.4069796    880.10371   0.98170249 
   16100   0.88885818   -6.4864625     2.049978  0.010610652  0.013995125           21    5.5172354    880.42756   0.98134138 
   16200   0.83586269   -6.4837204    2.0634508  0.010614459  0.013977123           10    5.7488428    876.26061   0.98600804 
   16300   0.87534254   -6.4798983    2.0977873  0.010724884  0.013963499            4    5.4478806    882.05124   0.97953493 
   16400   0.86677075    -6.451259     2.121113  0.010778013  0.013955494            5    5.6607384    880.47553   0.98128792 
   16500   0.87385497   -6.5228038    2.1230487  0.010722468  0.013946318            7    5.7407877    873.88228   0.98869152 
   16600   0.87179227   -6.5167521    2.1324871  0.010705256  0.013933817            6    5.9683872    870.80048   0.99219054 
   16700   0.88393007   -6.4724323    2.1448112   0.01070265  0.013921921           10    6.3862063    868.98392   0.99426466 
   16800   0.89061976   -6.4186565    2.1721073  0.010774342  0.013912677           16    6.4974911    871.50868   0.99138428 
   16900   0.92132426   -6.4371775    2.1979948  0.010838238    0.0139073           11    6.2662862    873.06145   0.98962106 
   17000   0.86787225   -6.4903556    2.2209272  0.010886898  0.013903288            9    5.7395155    876.86066   0.98533329 
   17100   0.84841844   -6.4692354    2.2351913  0.010892745  0.013898912           15    5.8055345    876.61715     0.985607 
   17200   0.85687605   -6.5063313    2.2503566   0.01090289  0.013891745           11     5.650846    876.61873   0.98560523 
   17300   0.89490255   -6.4736192    2.2464005  0.010820811  0.013881899           14    5.6690467    879.59361    0.9822718 
   17400   0.92486957    -6.478853    2.2698661  0.010871006  0.013873672           21    5.6907241    878.97469   0.98296346 
   17500   0.88884796   -6.4893259    2.2389632  0.010661729  0.013857792           11    5.8483602    876.14689   0.98613601 
   17600   0.89874606   -6.5250477    2.2541507  0.010673062  0.013835787            6     5.555189    877.19844   0.98495388 
   17700   0.83415453    -6.484486    2.2767551  0.010719185  0.013816915            2    5.7007949    877.37608   0.98475445 
   17800   0.88112753   -6.5813976    2.2828517  0.010687508  0.013795173            9    5.3080684    877.01944    0.9851549 
   17900   0.83114351   -6.4701762    2.3044886  0.010728532  0.013775115            5    5.7258049    877.89106   0.98417678 
   18000   0.87190547    -6.488172    2.3263608  0.010770188  0.013758196            2    5.5625283    879.52508   0.98234834 
   18100   0.92265447   -6.4571946    2.3563363  0.010848693  0.013744076            7    5.4377678    884.01695   0.97735683 
   18200    0.9053824   -6.4434797    2.3704066   0.01085351  0.013732381            2    5.7245528    881.02345   0.98067764 
   18300   0.88497451   -6.4866792    2.3948874   0.01090568  0.013721832            5    5.9919236     873.7876   0.98879865 
   18400    0.8701594    -6.520021    2.4066766  0.010899803  0.013712734            3    5.8714989     872.2357   0.99055795 
   18500   0.89596651   -6.5446725      2.40567  0.010836351  0.013699948            7    5.7144462     873.5752   0.98903907 
   18600   0.89873386   -6.4721695     2.407089  0.010784448  0.013684781            4    5.8563305    876.95418   0.98522821 
   18700   0.86313579   -6.4792995    2.4089981  0.010735286  0.013665878            4    5.5748369    880.27485   0.98151163 
   18800   0.86806969   -6.4446455     2.410716  0.010685798  0.013645066            3    6.1453779    873.61834   0.98899023 
   18900   0.86713826   -6.4945122    2.4246683  0.010690777  0.013623703            1    6.0590192    871.79199    0.9910621 
   19000   0.88420569   -6.4716391     2.478308  0.010869772  0.013607752            6    5.6582589    879.47225   0.98240735 
   19100   0.86776721   -6.4957889    2.5014955  0.010914029  0.013596419            4    5.4668531    880.31382   0.98146818 
   19200   0.88905148   -6.5398295    2.5053604   0.01087396  0.013582631            2    5.2286333    880.66808   0.98107337 
   19300   0.91672362   -6.4979421    2.5489027  0.011005624  0.013572611            4    5.3918686    882.36073   0.97919135 
   19400   0.90069528   -6.4645348    2.5517335  0.010961054  0.013565942            5    5.9721784    875.68515   0.98665599 
   19500   0.86898332   -6.4423301    2.5525425  0.010908301  0.013556682            4    6.2840569    872.63518   0.99010448 
   19600   0.88957715   -6.4873257    2.5913166  0.011017502  0.013547817            2    5.8329896     876.6757   0.98554118 
   19700   0.90994306   -6.5163497    2.6218651    0.0110908  0.013543123           10    5.5936859    877.58252    0.9845228 
   19800   0.86054917   -6.4966987    2.6570801  0.011182997  0.013541247            8    5.6189924    878.39392   0.98361337 
   19900   0.88296381   -6.5847247    2.6740328  0.011197792  0.013540596            6    5.5752408    872.97191   0.98972257 
   20000   0.88241813   -6.4892606    2.6880357  0.011200149  0.013541505           12    6.1971389    870.55067   0.99247525 
   20100    0.9036815   -6.4650252    2.7142986  0.011253311  0.013543418            6    6.0463603    874.88904    0.9875538 
   20200   0.96487707   -6.4548686    2.7278984  0.011253706  0.013545272            8    5.7763425     880.0572   0.98175437 
   20300   0.88775493   -6.4560591    2.7293216  0.011204112  0.013546241           13    6.0306649    875.18479   0.98722008 
   20400    0.8413754   -6.4446181     2.728386  0.011145367  0.013543464            3    6.2098332    873.01353   0.98967538 
   20500   0.93295698   -6.5128677    2.7242586  0.011074222  0.013537783            9    5.7454762    875.48369   0.98688303 
   20600   0.87305303   -6.5411475    2.7506104  0.011127064  0.013530322            3    5.4185726    877.22492   0.98492414 
   20700   0.86941662    -6.545656    2.7778929  0.011183144  0.013524164            3    5.2578007    879.57143   0.98229657 
   20800   0.84796244   -6.5598039    2.8084439  0.011251778   0.01351934            5    5.0613102    880.77913   0.98094967 
   20900   0.86361999   -6.5164296    2.8140346  0.011220233  0.013513637            8    5.1106792    884.33593   0.97700429 
   21000   0.88180331   -6.4716741     2.815872  0.011174095  0.013508007            2     5.563136    880.14928   0.98165166 
   21100   0.82162877   -6.5069519    2.8399359  0.011216176  0.013501865            2    5.6987848    876.15541   0.98612643 
   21200   0.88907573   -6.5288674    2.8421558  0.011171996  0.013496253            3    5.6477217    875.13954   0.98727113 
   21300   0.88601597   -6.4741793    2.8556082  0.011172176  0.013490702            4    6.0103273    874.08676   0.98846023 
   21400   0.92041353   -6.4440309    2.8878958    0.0112457  0.013486878            5    5.7976836    880.46592   0.98129863 
   21500   0.86465612   -6.3961228    2.8855341  0.011184241  0.013483718            6    6.0180998    879.29084   0.98261003 
   21600   0.88474112   -6.5108353    2.8827789  0.011121832   0.01347469            6    5.7676086    874.11894   0.98842384 
   21700   0.91263833   -6.5618738     2.882483  0.011069443   0.01346475           11    5.9032821    869.36181   0.99383247 
   21800    0.8555493   -6.5169492    2.8803098  0.011010358   0.01345328            6    6.3759724    864.56175   0.99935025 
   21900   0.91598198    -6.479824     2.899438  0.011032869  0.013442916            7    6.4504255    867.57458    0.9958798 
   22000   0.86532042   -6.5145654    2.9342291  0.011114504  0.013433186           10    6.0930308    869.71448   0.99342947 
   22100   0.87968579   -6.5200618    2.9890986  0.011271111  0.013426829            4    5.5929522      877.363   0.98476913 
   22200   0.87422531   -6.5336887    3.0070774  0.011287828  0.013422759            4    5.3190894    879.97352   0.98184773 
   22300    0.8505152   -6.5248872    3.0348453  0.011340976  0.013418087            2    5.4456544    877.32687   0.98480969 
   22400   0.90106191   -6.5141721    3.0501006    0.0113471  0.013416159            1    5.7335942    875.47323   0.98689483 
   22500   0.86411456   -6.4617751    3.0539605  0.011310965  0.013414326            1    5.9694329    874.94867    0.9874865 
   22600    0.8780755   -6.5350383     3.052482  0.011255464  0.013410435            1    5.8242396    872.61611   0.99012612 
   22700   0.89015039   -6.4744307    3.0831071  0.011318308    0.0134051            3    5.6891245    879.97881   0.98184182 
   22800   0.87788589   -6.4307612    3.0944631  0.011310172  0.013401782            2    5.7050641    882.30601   0.97925209 
   22900   0.95045173   -6.4987735    3.1166533  0.011341533  0.013397848            3    5.5284382    880.79279   0.98093446 
   23000   0.87339141   -6.4833257    3.1049084  0.011249668  0.013394127            4    5.9441633    875.05235   0.98736949 
   23100   0.87784698   -6.4416897    3.1364247  0.011314663  0.013388105            5    5.9676324    877.48313   0.98463431 
   23200   0.90696007   -6.4669732    3.1632829  0.011362366  0.013384618            2    5.4793447    883.19366   0.97826789 
   23300   0.86724624   -6.4991398    3.2265957  0.011540042  0.013384234            4    5.0082312    887.29273   0.97374854 
   23400   0.84947727   -6.4916755    3.2031465  0.011407217  0.013383647            2    5.4321209    880.76392   0.98096661 
   23500   0.86777398   -6.5539361    3.1940254  0.011326331  0.013378738            2    5.5402854    874.47511   0.98802126 
   23600    0.8386652   -6.4825504    3.1930916  0.011275041  0.013371675            2      5.75482      876.809   0.98539135 
   23700   0.87550138   -6.5170998    3.2381087  0.011385755    0.0133657            4    5.5162001    878.33072   0.98368414 
   23800   0.92407972    -6.495514    3.2620769  0.011421838  0.013362947            7    5.5832913    879.82215   0.98201665 
   23900   0.87549099   -6.4583348     3.267344  0.011392413  0.013359751            7    5.6473805    881.07614   0.98061899 
   24000   0.84869622   -6.4996628    3.2955096  0.011442741  0.013357674            5    5.9044429    873.89876   0.98867288 
   24100   0.88206584   -6.5267588    3.3034828  0.011422831  0.013355382            7    5.6508397    875.62856   0.98671976 
   24200    0.8957098       -6.523    3.3390953  0.011498262  0.013354116            7    5.3664893    880.27698   0.98150926 
   24300   0.88783411   -6.4613849    3.3775063  0.011582669  0.013353817            6    5.5398611    882.39579   0.97915245 
   24400   0.86115045   -6.5130848    3.3858511  0.011563699  0.013355186            2    5.2525562    881.84031   0.97976923 
   24500   0.82389703    -6.468541    3.3984245  0.011559267  0.013355225            2    5.4922423    881.98985   0.97960311 
   24600    0.8955219   -6.4318571      3.40729   0.01154231  0.013355457            1    5.7469798    881.60761   0.98002783 
   24700   0.87393079   -6.4880575    3.4261494  0.011559208  0.013356038            3    5.8232573    875.66425   0.98667954 
   24800    0.8525136    -6.472732    3.4363653  0.011546926  0.013356941            4    5.9783907    873.98591   0.98857429 
   24900   0.89129117   -6.4225916    3.4412644  0.011516949  0.013356489            1    6.1745318    875.18042   0.98722501 
   25000   0.89003585    -6.443504    3.4719799  0.011573266  0.013356867            4    6.1748118    874.26386      0.98826 
   25100    0.8888132   -6.5279127    3.4844817  0.011568664  0.013357719            3    5.8014314    874.39682   0.98810973 
   25200    0.9023775   -6.5748618    3.5158648  0.011626537  0.013358278            8     5.241717    878.31522    0.9837015 
   25300   0.88273417   -6.4916131    3.5184454  0.011589082   0.01335824            6    5.5213242    880.37842   0.98139615 
   25400   0.89900656   -6.4675259    3.5104006  0.011517062  0.013357038            6    5.7950143     878.0671   0.98397947 
   25500    0.9014983   -6.5182252    3.5162892  0.011491141    0.0133545            2    5.9030535    872.75157   0.98997243 
   25600   0.90046887   -6.4760034    3.5482969  0.011550445  0.013352682            2    6.2499076     870.2019   0.99287304 
   25700   0.86699269     -6.49632    3.5687129  0.011571702  0.013353476            1    6.2097835    869.62534   0.99353131 
   25800   0.87587057   -6.4858304    3.5848036  0.011578823  0.013353277            8    6.4243676    867.00888   0.99652958 
   25900   0.91737787   -6.4759963    3.6153349  0.011632351   0.01335439            7    5.8982329    876.15071   0.98613171 
   26000   0.87180292   -6.4991124    3.6376294  0.011659068  0.013354922            4    5.6893978    877.29015   0.98485091 
   26100   0.90399566   -6.5450089    3.6525893  0.011662162  0.013355595            4    5.7069241    873.20921    0.9894536 
   26200   0.87219675   -6.5383887    3.6465008  0.011598285  0.013355864           11    5.8759804    871.46255   0.99143676 
   26300   0.92781996   -6.5273083    3.6812094  0.011664161  0.013355579            8    5.6727478     876.2818   0.98598419 
   26400   0.87195674   -6.5051197    3.7077263  0.011703681  0.013356521            6    5.7828426    874.69145   0.98777689 
   26500   0.88611227   -6.5307683     3.735638  0.011747289  0.013357958            3    5.1365727    882.15021   0.97942503 
   26600   0.87746875   -6.4899628    3.7400776  0.011717035  0.013359071            2    5.2994557    883.25651   0.97819828 
   26700   0.86576538   -6.5078081     3.764592  0.011749663  0.013360622            6    5.7155033    875.45664   0.98691353 
   26800   0.86110556   -6.4971395    3.7842929   0.01176708  0.013363159            4    5.7044574    877.39575   0.98473237 
   26900   0.88925983   -6.4596728    3.7839525  0.011722281   0.01336403            4    5.7711393    879.12554   0.98279479 
   27000    0.8562866   -6.5099093    3.7369805   0.01153389  0.013361865            7    5.8893282    872.88196   0.98982456 
   27100   0.87757565   -6.5015176    3.7301278  0.011470257  0.013355578            3    5.9474255    873.14954   0.98952123 
   27200    0.9036751   -6.4581737    3.7773757  0.011572842  0.013350631            7     5.707333    879.93405   0.98189177 
   27300     0.878415   -6.4173682     3.848632  0.011747961  0.013348577            6    5.2727265    889.40314     0.971438 
   27400   0.87056473   -6.5131447    3.8620617   0.01174593  0.013348297            2    5.1910239    883.04225   0.97843563 
   27500   0.87939012   -6.5131113    3.8410951  0.011639682  0.013346553            6    5.3850408    880.76464   0.98096582 
   27600   0.87584324   -6.4720362    3.8472958  0.011616231  0.013343186            8    5.6592827    879.96184   0.98186075 
   27700   0.82666135   -6.5058578     3.842331  0.011559359  0.013337704            6    5.5148759    878.14202   0.98389552 
   27800   0.87894411   -6.5024485     3.903331  0.011700632  0.013334119            9    5.3236239    881.75484    0.9798642 
   27900   0.83633651   -6.4977281    3.9659503  0.011845729   0.01333437            8    5.2754288    883.03478   0.97844391 
   28000   0.87170886   -6.5352495    3.9644474   0.01179895  0.013335615            2    5.1925279    881.83441   0.97977578 
   28100   0.88548188   -6.4602842    3.9431147  0.011693697  0.013335176            2    5.9011872    877.16584   0.98499047 
   28200   0.87044218   -6.4487517    3.9562687  0.011691101  0.013333639            3    5.8641493    877.94777   0.98411321 
   28300   0.91830791   -6.4664715    3.9694429  0.011688583  0.013332168            7    5.7000832    879.64238   0.98221734 
   28400   0.89579409   -6.5213659    3.9607763  0.011621996  0.013329267            2     5.673052    875.87694   0.98643994 
   28500   0.89966878   -6.4995518    3.9640019  0.011590649  0.013325055            3    5.9889897    872.96422   0.98973129 
   28600     0.901917   -6.4009145    4.0043089  0.011667567  0.013322467            2    6.0909697    879.17551   0.98273893 
   28700    0.8802029   -6.4230333    4.0145211  0.011656565  0.013319862            7    6.0601575    876.95168   0.98523102 
   28800   0.89997626   -6.4420993     4.055146   0.01173364  0.013318913            5    5.9753853    877.84236   0.98423138 
   28900   0.90839298   -6.4674494    4.0544549  0.011691046  0.013317582            3    6.1133284    873.72214   0.98887273 
   29000   0.90493736   -6.4670925    4.0953954  0.011768377  0.013318013            4    5.9199999    876.67476   0.98554223 
   29100   0.89899159   -6.4913002    4.1138432  0.011780765  0.013318331            6    5.9270038    875.34157   0.98704326 
   29200   0.87112819   -6.4962498    4.1274037   0.01177912   0.01331813            9    5.8796105    874.16908   0.98836714 
   29300   0.88588632   -6.4561666    4.1512978  0.011806876  0.013318216            5    5.6907466    880.70375   0.98103364 
   29400   0.87331151   -6.4150094    4.1882269  0.011871391  0.013319258            7    5.9273452    879.79569   0.98204619 
   29500    0.9274172   -6.4669112    4.1788674   0.01180471   0.01332082            7    5.6438462    880.41941   0.98135046 
   29600   0.88086854   -6.4867937    4.2026213  0.011831704  0.013320996           10    5.7271741    877.60793    0.9844943 
   29700   0.92407345    -6.465626    4.2227065  0.011848222  0.013322178            7    5.8439391    878.03357   0.98401704 
   29800   0.89623207   -6.4130268    4.2312159  0.011832259  0.013323521           15    6.0763643     878.2636   0.98375931 
   29900   0.89552094   -6.4795316    4.2058708  0.011722048  0.013322437            6    6.0408784    873.59509   0.98901655 
   30000    0.8533596   -6.4618345    4.2290777  0.011747438  0.013320616            8    6.1309063    873.09446   0.98958364 
   30100   0.87519919   -6.4935892    4.2405081  0.011740055   0.01331881            5    6.1153696    870.86829   0.99211328 
   30200   0.87806725   -6.5564509    4.2486371  0.011723612  0.013316307            2    5.8155047    871.07846   0.99187392 
   30300   0.88908271    -6.497969    4.2583384  0.011711602  0.013313347            2     5.897365    874.46739   0.98802998 
   30400   0.90545592   -6.4820582    4.2946687  0.011772666  0.013310776            3    5.7105076    878.24659   0.98377837 
   30500   0.90608319   -6.5710271    4.3212997   0.01180683  0.013309851            6    5.2549444    878.48443   0.98351202 
   30600   0.87546357   -6.5142917    4.3467668    0.0118376  0.013308241            5    5.7598245    875.04652   0.98737608 
   30700   0.88523788   -6.4910692    4.3599584  0.011834849  0.013307683            4    5.9351703    874.70177   0.98776524 
   30800   0.91712719   -6.5045206    4.4003273  0.011905647  0.013308455            4     6.025634    872.15863   0.99064548 
   30900   0.88450449   -6.5260774    4.4035365  0.011875772  0.013310705            2    6.1279737    869.33744   0.99386033 
   31000   0.89274903   -6.4491269    4.4268782   0.01190021  0.013311689            2    6.3556819    871.12424   0.99182179 
   31100   0.90649342   -6.4741891    4.4533622   0.01193291  0.013313638            3    5.7372485    879.58558   0.98228077 
   31200   0.92590489   -6.4231781    4.4512027  0.011888896  0.013314464            1    5.7892287    881.57702   0.98006184 
   31300   0.89201686   -6.4901011    4.4736793  0.011910754  0.013314958            2    5.6566627    878.40762   0.98359802 
   31400   0.89963705   -6.5695846     4.475695  0.011878171  0.013314249            2    5.0393271    881.44995   0.98020313 
   31500   0.84766122   -6.5426765    4.4676713  0.011819236  0.013311913            4    5.0948476     881.9725   0.97962239 
   31600   0.87393901   -6.4622314    4.4567383  0.011753002  0.013307791            5    5.7683554    878.06339   0.98398363 
   31700   0.85794349   -6.4888831    4.4738787  0.011760985  0.013304345            2    5.9772484      872.858   0.98985172 
   31800   0.87917853   -6.5525583    4.4668712  0.011705637  0.013299478            4    5.5319008    875.12014   0.98729301 
   31900   0.87456317   -6.4338599    4.4944995  0.011741117  0.013294741            1    5.9543924    878.29495    0.9837242 
   32000    0.8439453   -6.4172297    4.5542417  0.011860004   0.01329226            1    5.9545614    879.32282    0.9825743 
   32100   0.89715147   -6.3778301    4.5921412  0.011921446  0.013292117            2    6.1500701    880.31574   0.98146603 
   32200   0.88564525   -6.4573508    4.5901651  0.011879309  0.013292102            3    5.7746023    878.90841   0.98303758 
   32300    0.8842732   -6.4748698    4.6156478  0.011908276  0.013291152            2    5.4622012    882.43155   0.97911277 
   32400   0.90676038   -6.4204989    4.6623601  0.011991667  0.013290918            2    5.3784778    889.00406   0.97187408 
   32500   0.89020589   -6.4328272    4.6660011  0.011964105  0.013291072            1    5.7679596    881.59292   0.98004417 
   32600   0.88360555   -6.4828176    4.6980756  0.012009396  0.013292605            1    5.5580769    880.12015   0.98168415 
   32700    0.8093602   -6.4739013    4.7287323  0.012050796  0.013294226            6    5.6779794    877.55867   0.98454956 
   32800   0.89229505   -6.5272373     4.748502  0.012064283  0.013296098            4    5.2474049    881.24408   0.98043212 
   32900   0.90212314    -6.476885    4.7606268  0.012058325   0.01329833            3    5.6992568     879.0129   0.98292073 
   33000   0.82875243   -6.4566874    4.7484691  0.011991083  0.013300721            3    6.1034015    873.64757   0.98895713 
   33100   0.90043263   -6.4877517    4.7585692  0.011980285  0.013301662            6    5.7508172    877.12595   0.98503528 
   33200   0.89924791   -6.4947758    4.7931251  0.012030936   0.01330249            4    5.5536487     878.9666    0.9829725 
   33300   0.89278029   -6.5430529    4.8250413  0.012074678  0.013305192            7    5.5926355    875.26861   0.98712554 
   33400   0.84214943   -6.5245047     4.835367  0.012064289  0.013306997           11    6.0775967    868.59516   0.99470966 
   33500    0.8839728   -6.5075172    4.8786108  0.012135847  0.013310128            5    6.0452007    871.91437   0.99092299 
   33600   0.91719388   -6.4957264    4.8857556  0.012117449  0.013314628            4    6.2415591    869.24331   0.99396796 
   33700   0.92043178   -6.5415172    4.9116341  0.012145485  0.013319126            3    6.0938757     868.4678   0.99485553 
   33800   0.85359923   -6.4987518    4.9638412  0.012238267  0.013324446            6    6.0214824    871.92101   0.99091545 
   33900   0.87894024   -6.4425274    4.9984115  0.012287147  0.013330547            2    6.0291669    876.25686   0.98601226 
   34000   0.85926017    -6.472673    5.0313082  0.012331637   0.01333748            3    5.8917301    876.35937   0.98589691 
   34100   0.86162535   -6.5889166    5.0502477  0.012341759  0.013344645            3    5.6662525    870.07865   0.99301367 
   34200   0.85232895   -6.5257856    5.0906489  0.012404115  0.013352047            5    5.8072172    873.21894   0.98944258 
   34300   0.89013705   -6.5183703    5.1894153  0.012607909  0.013362611            4    5.3365586    880.54427   0.98121131 
   34400   0.86806175   -6.4282274    5.2115793   0.01262495  0.013374707            4    5.5752917    884.27542   0.97707115 
   34500   0.88916583   -6.5036013     5.242846  0.012663879  0.013386361            4    5.1186446    885.01228   0.97625764 
   34600   0.85565092   -6.4844251    5.2502263  0.012645054  0.013398554            6     5.578082    879.14914   0.98276841 
   34700   0.86034459    -6.438949    5.2897333   0.01270349  0.013410977            5    5.6118406    882.27717    0.9792841 
   34800   0.90913972   -6.4381673    5.3372335  0.012780731  0.013425255            4    5.4063352    886.14556   0.97500911 
   34900   0.83839627   -6.4265783    5.3677108  0.012816883  0.013440023            5    5.5983741    884.00409   0.97737105 
   35000   0.85937392    -6.433249    5.3500289  0.012738164  0.013454184            4    5.9751071    878.59333   0.98339012 
   35100   0.90901933   -6.4437035    5.3640369   0.01273513  0.013467925           11    5.9047824     878.3899   0.98361787 
   35200   0.89184686   -6.4678431    5.3783261  0.012732779  0.013481195            5    6.0611151    874.30266   0.98821614 
   35300   0.87657389   -6.5104253    5.3929647  0.012731267  0.013493986            4    6.0016467    871.50881   0.99138413 
   35400   0.89482588   -6.4488274    5.4807817  0.012902028  0.013508563            3    5.9159178    877.48991   0.98462671 
   35500   0.89381429   -6.4445818    5.5142569  0.012944265  0.013525182            2    5.9312664    878.32817   0.98368699 
   35600   0.89645094    -6.513723    5.4763908  0.012819267  0.013540283            3    5.9107131    873.64894   0.98895559 
   35700   0.90095469   -6.4778981    5.4985649  0.012835119   0.01355439            2    6.2853212    870.07441   0.99301851 
   35800   0.88666853   -6.4249022    5.5496985  0.012918292  0.013569692            2    6.3688491    872.56625   0.99018269 
   35900   0.89179813   -6.4573913    5.5605201  0.012907428  0.013585107            2     6.009583    875.72971   0.98660579 
   36000   0.85447829    -6.486539    5.5419544  0.012828598  0.013598523            1    5.8032559    875.76025   0.98657138 
   36100   0.90104955   -6.4872684    5.5700777  0.012857982   0.01361155            1    5.5246487    880.75299   0.98097878 
   36200   0.85660897   -6.5066616     5.593325  0.012875978  0.013623522            5    5.3806519    881.18772   0.98049482 
   36300     0.853898   -6.5053874    5.5915538  0.012836441  0.013634601            2    5.6776219    876.16768   0.98611262 
   36400   0.89004478   -6.4805258    5.6536338  0.012943301  0.013646664           10     5.387054    882.50577   0.97903043 
   36500   0.85750076   -6.4519461    5.7208221  0.013061238  0.013660897            5    5.2754726    886.59936   0.97451006 
   36600   0.87837145   -6.4736835    5.6912012  0.012958108  0.013674771            4    5.3181728    884.00921   0.97736538 
   36700   0.85273728   -6.5065466     5.667849  0.012869775  0.013686086            6    5.6230415    876.44784   0.98579739 
   36800   0.87131775   -6.4718909    5.6829764  0.012869059  0.013697257            2    5.8184042    876.46527    0.9857778 
   36900   0.86576764    -6.473634    5.6882313  0.012846051   0.01370748            2    5.7700844    877.24149   0.98490554 
   37000   0.90765941   -6.4918631    5.6949177  0.012826391  0.013717524            5    5.9242275    873.66731   0.98893479 
   37100   0.87529176   -6.5358239    5.7467981  0.012908351  0.013728538            5    5.6410777    874.70906     0.987757 
   37200   0.86949517   -6.4568675    5.7854901  0.012960327  0.013740136            2    5.9130056    876.15567   0.98612613 
   37300   0.86888623   -6.4306619    5.8263283  0.013016819   0.01375219            6    5.6291625     883.2141   0.97824525 
   37400   0.92111827    -6.426156     5.869111  0.013077342  0.013764936            5    5.5093935    886.55521   0.97455859 
   37500    0.8645144   -6.4389108    5.8809726  0.013068828  0.013778265            3     5.948292    877.64618   0.98445139 
   37600   0.89628084   -6.4450681    5.8608298  0.012989428   0.01379149            6    6.0328932    876.65401   0.98556555 
   37700   0.87021401   -6.5171497    5.8650543  0.012964311  0.013802386            4    5.7030739    875.20188   0.98720081 
   37800   0.87250245   -6.5013147    5.8934789  0.012992678    0.0138129            3    5.8384733    874.85646   0.98759058 
   37900   0.89180775   -6.4676624    5.9649227  0.013115485  0.013825309            1    5.5372155     881.8656   0.97974113 
   38000   0.88619083   -6.4347263    5.9501718  0.013048622  0.013837448            3    5.6680185    882.13114   0.97944621 
   38100    0.8851452   -6.5542627    5.9693413  0.013056302  0.013848269            2    5.5044038    875.92617   0.98638451 
   38200   0.86795832   -6.4717977    6.0215311  0.013135975  0.013860363            2    5.5380283    881.58188   0.98005644 
   38300   0.86604151   -6.4337638    6.0529279  0.013169991  0.013873513            2    5.6983124    881.97419    0.9796205 
   38400   0.91592635   -6.4206266     6.056641  0.013143752    0.0138861            3    5.9901021    879.91195   0.98191643 
   38500   0.90768719   -6.4213902    6.0687686  0.013135863  0.013899299            2    6.0650361    877.91671   0.98414803 
   38600    0.8715946   -6.4956268     6.053306   0.01306845  0.013910669            5     5.665859    877.68988   0.98440237 
   38700   0.88770016   -6.4342299    6.0418727  0.013010062  0.013920624            5    6.0532474     876.7424   0.98546619 
   38800   0.94831848   -6.4634979    6.0553728  0.013005526  0.013929859            2    5.5491787    882.79892   0.97870532 
   38900   0.88042257   -6.4556525    6.0403336  0.012939875  0.013938039            2    5.7340407    880.21183    0.9815819 
   39000   0.87397756   -6.4695064    6.0701517  0.012970409  0.013945433            2    5.9403363    875.09955   0.98731624 
   39100   0.90415576   -6.4359584    6.1149881  0.013032796  0.013953975            3    6.2202813    874.62442   0.98785259 
   39200    0.9392591   -6.4723254    6.1558594  0.013086436  0.013964237            2    5.6413357    881.30925   0.98035962 
   39300   0.86516806   -6.4478044    6.1186128  0.012974158  0.013972723            3    5.9111314    877.58602   0.98451888 
   39400   0.89169421    -6.502307    6.1390641  0.012984484  0.013979736            4    5.4513792     880.2965   0.98148748 
   39500   0.90566457   -6.4381102    6.1630589  0.013002234  0.013986915            4    5.9526345    878.47946   0.98351758 
   39600   0.87715636   -6.4799754    6.1744952  0.012993466  0.013994445            3     5.844455    876.43868    0.9858077 
   39700   0.88650753   -6.4908139    6.1609645  0.012932335  0.014000842            2     5.892249    874.76497   0.98769387 
   39800   0.93950461   -6.5388768    6.1627068   0.01290349  0.014006943            3     5.790624    873.08393   0.98959559 
   39900   0.87806274   -6.5002575    6.1921076  0.012932555  0.014012649            3    5.8140949     874.5033   0.98798941 
   40000   0.87281923   -6.5129574    6.2032425  0.012923422   0.01401782            3    5.9491434    872.08168   0.99073289 
   40100   0.91695895   -6.4936788    6.2753891  0.013041124  0.014024417            3    5.6300386    877.92119     0.984143 
   40200    0.9064927   -6.4909604    6.2965584  0.013052567  0.014031883            4    5.6926719    878.03608   0.98401423 
   40300   0.88824836   -6.5276155     6.287205  0.013000837  0.014038666            1    5.7453959    873.79654   0.98878853 
   40400   0.89021581   -6.4726971    6.2919981  0.012978544  0.014044707            3    5.7180017    878.96588   0.98297331 
   40500   0.88623056   -6.4376978    6.3193748  0.013002829  0.014050329            4    6.0240201    876.96863   0.98521198 
   40600   0.86491426   -6.4703448    6.3359732  0.013004871  0.014056898            6    6.1214979    872.63297   0.99010698 
   40700   0.92063438   -6.4931787    6.3904709  0.013084502  0.014063793            8    5.9392205    874.48792   0.98800679 
   40800   0.87312095    -6.513593    6.4353324  0.013144061  0.014071824           10    5.5607866    878.56146    0.9834258 
   40900   0.83226613   -6.5165897    6.4140486  0.013068558   0.01407867            5    5.6487733    876.25316   0.98601642 
   41000   0.89052704   -6.5177572    6.4331855   0.01307558  0.014084537            8     5.509698    877.76798   0.98431478 
   41100   0.88524875   -6.4712005    6.4878323  0.013154567  0.014091499            4    5.5251812    882.27114   0.97929079 
   41200   0.89504483   -6.4870258    6.4798294  0.013106451  0.014098203            4    5.3162903    883.76296   0.97763771 
   41300   0.84994834   -6.5049103    6.4726098  0.013060149  0.014103743            2    5.3847548    879.87347   0.98195937 
   41400   0.90744906    -6.524192    6.5091721  0.013102198  0.014109114            6    5.0092517    885.07691   0.97618636 
   41500   0.87200818   -6.4349916    6.5224139  0.013097217  0.014114749            4    5.6776909    882.30592   0.97925218 
   41600   0.86923553   -6.4706891    6.5119491   0.01304477  0.014119937           14    5.8018036    877.25586    0.9848894 
   41700   0.84995715   -6.4733775    6.5001994  0.012990007  0.014124108            9    5.9669828    874.17138   0.98836454 
   41800   0.92859041   -6.5108054    6.5153714  0.012989177  0.014128432           10    5.8183197    874.72195   0.98774245 
   41900   0.83908324   -6.4960247     6.542794  0.013012717  0.014132443            5    5.6512982    877.01493   0.98515996 
   42000   0.87581146   -6.5497309     6.598237   0.01309174  0.014136686            8    5.2138537    880.37513   0.98139983 
   42100   0.90423252    -6.519302    6.5720723  0.013008852  0.014140659           12    5.3016687    881.15148   0.98053515 
   42200   0.87644255   -6.5533333    6.5442902  0.012923164  0.014143275            5    5.5656987    875.01092   0.98741625 
   42300   0.89096369    -6.549652    6.5671794  0.012937705  0.014145285            5    5.3985949    877.07318   0.98509454 
   42400   0.85991977   -6.4904526    6.6077288  0.012986888  0.014147987            6    5.5662374    878.96407   0.98297533 
   42500   0.91565143    -6.459466    6.5782113  0.012898453  0.014150095            4    5.8376911    877.61848   0.98448246 
   42600   0.88714361   -6.4934126    6.5733478  0.012858662  0.014151402            3    5.9489482    873.69127   0.98890767 
   42700   0.90383455   -6.4991491    6.5586533   0.01279987  0.014152248            3    5.9275174    873.66145   0.98894142 
   42800   0.85912625   -6.5266249    6.5804346  0.012812372  0.014152003            7    5.7453956    873.42279   0.98921165 
   42900   0.93158487   -6.5198145    6.6140073  0.012847722  0.014152213            7    5.7755628    875.07582   0.98734301 
   43000   0.85872648   -6.4968424    6.6719342  0.012930105  0.014153323            5    5.8543731    873.96991   0.98859239 
   43100   0.88481461   -6.5527155    6.6681044    0.0128927  0.014154943            5    5.7746693    872.17116   0.99063124 
   43200   0.90417479   -6.5388847    6.6412781  0.012811107  0.014155862            7    6.2002756    866.78992   0.99678132 
   43300   0.85992128   -6.5550909     6.666537  0.012830133  0.014156366            9    5.9122131    870.26874   0.99279677 
   43400   0.89174133   -6.5017746    6.6715557  0.012810207  0.014156013            7    5.9488958    873.28863   0.98936362 
   43500   0.92628653   -6.5343191    6.7368727  0.012905886  0.014156824            7    5.7166166     874.1776   0.98835752 
   43600   0.89408093   -6.5523173    6.7223852  0.012848595  0.014157861           10    5.7179504     872.9713   0.98972326 
   43700     0.936083   -6.5034311    6.7348436  0.012842951  0.014158226            3    5.9824523    873.68933   0.98890987 
   43800   0.88176856   -6.4870059    6.7632143  0.012867607  0.014158898            9     5.891917      875.777   0.98655251 
   43900   0.86204642   -6.4824572     6.786861  0.012883183  0.014159656           10    5.9996712    873.95955   0.98860411 
   44000   0.86017571   -6.5348586     6.759376  0.012801848  0.014159934            8    6.1483376    867.24124   0.99626258 
   44100   0.89460545   -6.5303935    6.8115764  0.012871459  0.014160211            6    5.9966638    870.50675   0.99252533 
   44200   0.89988266   -6.4785604    6.8432957  0.012902141  0.014160981            5    5.9572959    874.60317   0.98787659 
   44300   0.89237725   -6.4439399    6.8398053  0.012866451  0.014161995            3    6.3119133    872.55609   0.99019423 
   44400   0.90756594   -6.5706017    6.8346464   0.01282779  0.014162327            4    5.8584092    869.05384   0.99418466 
   44500   0.87760705    -6.563184    6.8907601  0.012904045  0.014162385            9     5.541641     874.6367   0.98783873 
   44600   0.85843066   -6.5262039    6.9117774  0.012914382  0.014162476           18    5.4319625    878.46886   0.98352946 
   44700   0.90506317   -6.5316752     6.904077  0.012871135  0.014162361           13     5.418766      879.333   0.98256292 
   44800   0.88715811   -6.5691697    6.8883905  0.012813226  0.014161681            9    5.6355822    872.63669   0.99010276 
   44900   0.86768598   -6.5559562    6.9132574  0.012830841   0.01416028            8    5.6304887    873.05198    0.9896318 
   45000   0.86205727   -6.5037529    6.9375273  0.012847273  0.014159512           17    5.7731858    875.13406   0.98727731 
   45100   0.88857805   -6.5064156    6.9616798  0.012863414   0.01415896           23    5.6851624    876.32734   0.98593295 
   45200   0.83850562   -6.5269829    6.9526921  0.012818385  0.014158101           16    5.7763612    872.63401   0.99010581 
   45300   0.88345335    -6.556266    6.9662199  0.012814974  0.014156629           29    5.5129048    875.50591   0.98685799 
   45400   0.90229479   -6.4807038    6.9208148  0.012703404  0.014154691           35    6.0639799    873.34229   0.98930283 
   45500   0.90484609   -6.5622592    6.8882603  0.012615861  0.014151313           24     5.849275    870.08673   0.99300446 
   45600   0.89561214   -6.5693111    6.8921268  0.012595261  0.014146875           15    5.8146429    870.39814   0.99264918 
   45700   0.89026086   -6.4737397    6.9595182  0.012690587  0.014142972           17    5.9036327    876.29166    0.9859731 
   45800   0.90706255   -6.5010883    6.9361694  0.012620395   0.01414005            9    6.2215261     869.0516   0.99418722 
   45900   0.89204273   -6.5454709    6.9417918  0.012603108  0.014135834           16    5.9202704    870.06008   0.99303488 
   46000   0.84576957   -6.4736497    6.9734778  0.012633112  0.014131675           18    6.0562846    872.35318   0.99042454 
   46100   0.92603529   -6.5129957    7.0832487  0.012804137  0.014128752           13    5.4816177    879.45825   0.98242299 
   46200   0.84773033   -6.4836721    7.0884211  0.012785752  0.014126774            6    5.5288877     879.5945    0.9822708 
   46300   0.86023934   -6.5422946    7.1171275  0.012809805  0.014124263            4    5.3415132    877.99086   0.98406491 
   46400    0.9113106   -6.5664993    7.0816575  0.012718494  0.014121845            8       5.3325    877.24215   0.98490479 
   46500   0.86253281   -6.5382121    7.0929966  0.012711463  0.014118607           14    5.4345201    876.81986   0.98537914 
   46600   0.86757655   -6.4981259    7.0541178   0.01261466  0.014114477           11    5.9430595     873.0744   0.98960639 
   46700   0.90357413   -6.4620967    7.0734436  0.012622133  0.014110427            8    5.8245981    877.42917   0.98469487 
   46800   0.87022388    -6.505545    7.0889967  0.012622857  0.014106248           28    5.4779278    879.59447   0.98227085 
   46900   0.83733847   -6.4321945    7.1060705   0.01262628  0.014101624           17     5.744064    880.73245   0.98100166 
   47000   0.90361114   -6.5194475    7.1289247  0.012639937  0.014097094           20      5.36978    880.69051   0.98104839 
   47100    0.8665073   -6.5132973    7.1247058  0.012605636  0.014092438           12    5.5939531    877.08224   0.98508437 
   47200   0.91435422   -6.5183814    7.0823874  0.012504215  0.014086992           14    5.5148028    878.57849   0.98340674 
   47300   0.88077461   -6.4673691     7.155793  0.012607105  0.014081605            7    5.4713713    883.17765   0.97828562 
   47400   0.82195302   -6.4584431    7.1456522   0.01256268   0.01407695           10    5.9068657    875.94087   0.98636795 
   47500   0.86503411   -6.4735346    7.1492957  0.012542624  0.014071748            7    5.8795888    875.87914   0.98643747 
   47600   0.88494207   -6.5379757    7.1777722  0.012566128  0.014066399           14    5.4938906     877.3739   0.98475689 
   47700   0.85719786   -6.4928387    7.1951613  0.012570163  0.014061394            8    5.7591216    876.49308   0.98574651 
   47800   0.92061103   -6.4693074    7.2018847  0.012555587  0.014056583            8    5.9077665    876.00458   0.98629622 
   47900   0.88711934   -6.4989305    7.1933383  0.012514506  0.014051452            3    5.9052799    874.04342   0.98850925 
   48000   0.86399889   -6.4975522    7.1762368  0.012458744  0.014045549           12    6.1526086    869.77397   0.99336153 
   48100   0.88734315   -6.4154641    7.2092636  0.012490062  0.014039963            5    6.5043922    871.63124   0.99124487 
   48200   0.91121003   -6.5099089     7.252399  0.012538726   0.01403534           10    5.9472329    872.85756   0.98985223 
   48300   0.84553491   -6.5264449    7.2361493  0.012484729  0.014029694            9    5.9159456    871.24355   0.99168596 
   48400   0.85313203   -6.4885209    7.3020626  0.012572422  0.014024264            4    5.5819155    878.65918   0.98331642 
   48500   0.91579889   -6.5207888    7.3303253  0.012595061  0.014019811            7    5.4991903    879.14405   0.98277409 
   48600   0.88344486   -6.4960222     7.358309  0.012617128   0.01401575           13    5.6802329    877.65624    0.9844401 
   48700   0.88548847   -6.4921516    7.3362139  0.012553412  0.014011568            3    5.7773298    876.14251   0.98614094 
   48800   0.85084221   -6.5240029    7.3462856  0.012544886  0.014006589            3    5.4777395    877.18668   0.98496708 
   48900   0.89834329   -6.4983107    7.3599409  0.012542503   0.01400109            3    5.6534771    877.33064   0.98480546 
   49000   0.87738967   -6.4740588    7.4291943  0.012634684  0.013996681            2    5.6194821    879.78685   0.98205605 
   49100   0.82798562   -6.4903933    7.4650218  0.012669759  0.013993057            5    5.5488299    879.04751   0.98288202 
   49200   0.89167996   -6.4751314    7.4912963   0.01268851  0.013989631            5    5.4484278    883.07803   0.97839599 
   49300   0.87392062   -6.4813337     7.506675  0.012688768  0.013986212            6    5.3066317    883.93001   0.97745296 
   49400   0.84532453   -6.5058408    7.4581405  0.012581208  0.013982018            9    5.8330485    873.36567   0.98927635 
   49500   0.84249599   -6.4329745    7.4684194  0.012573096  0.013977896           15    6.5281264    870.09617   0.99299368 
   49600    0.8872512   -6.4131614     7.516636  0.012628757   0.01397472           14    6.2645436    875.36446   0.98701746 
   49700   0.86024863   -6.4353456    7.5280734  0.012622524  0.013971214            5    5.9619208    877.65702   0.98443923 
   49800   0.84092661   -6.5328005     7.542807  0.012621832    0.0139675            4    5.6533214    874.21827   0.98831154 
   49900   0.86979261   -6.5121863    7.5322561  0.012578918  0.013963041            4    5.6699632    876.06165   0.98623196 
   50000   0.93668342   -6.5213556    7.5622049  0.012603675   0.01395922            4    5.7938848    874.80212   0.98765193 
   50100   0.89383523    -6.453174    7.5815291   0.01261066  0.013956078            3    6.2886528    872.32328   0.99045849 
   50200   0.94211432    -6.433594    7.5983409  0.012613448  0.013952571            4    6.1804743    876.20906   0.98606604 
   50300   0.92879493   -6.4197618    7.6378343  0.012653801  0.013949692           11    5.8882072    880.41923   0.98135066 
   50400   0.87891168   -6.4579251    7.6456163  0.012641561  0.013946409            6    5.8299334    877.80668   0.98427139 
   50500   0.86087878    -6.513449    7.6010827  0.012543041   0.01394212            8    5.7625687     874.4741    0.9880224 
   50600   0.88733427   -6.5294733    7.6607871  0.012616579  0.013937652           11    5.4050023    878.91005   0.98303575 
   50700   0.87246716   -6.4765179    7.7080043  0.012669303  0.013934199           10    5.6897816    878.80785   0.98315007 
   50800   0.83817277   -6.5135552    7.7337007  0.012686517  0.013931076            3    5.6046132    876.66038   0.98555839 
   50900   0.88182192   -6.5165806    7.7818563  0.012740433  0.013928269            3    5.5312407    877.65813   0.98443798 
   51000   0.87512403   -6.4730498      7.83485  0.012802042  0.013926735            2    5.8034295    877.20173   0.98495018 
   51100   0.92087134   -6.4719789    7.8219342  0.012755927   0.01392556            2    6.0390795    874.96566   0.98746733 
   51200   0.89415559   -6.4884069    7.8744915  0.012816555  0.013924674            3    5.9246997    874.12138   0.98842109 
   51300   0.82907478   -6.4896492    7.9146291  0.012856772   0.01392427            4    6.0275122    872.23688   0.99055661 
   51400    0.9195223   -6.5032501    7.9350443  0.012864858  0.013924085            1    5.9399989    873.46194   0.98916732 
   51500    0.8978234    -6.426809    7.9513988  0.012866341  0.013924246            2    6.1800843    875.25083    0.9871456 
   51600   0.90853851   -6.4582243    7.9906578  0.012904809  0.013924458            1    5.9351724    876.88024   0.98531129 
   51700    0.9090703   -6.4811041     7.981011  0.012864299  0.013924619            6     5.867818    876.41702   0.98583206 
   51800   0.88458758   -6.4827167    8.0089967  0.012884486  0.013924608            5    5.8259075     876.4659   0.98577708 
   51900   0.88043659   -6.5258174    8.0627136  0.012945911  0.013924736            3    5.7051412    875.31289    0.9870756 
   52000   0.90819847   -6.4773563    8.1106296  0.012997804  0.013925482            4    5.3199864      884.683   0.97662101 
   52100   0.85058456   -6.4505814     8.060026  0.012891916  0.013925594            2    5.8674765    877.14462    0.9850143 
   52200   0.86295737   -6.5480027     8.102108    0.0129344  0.013925149            1    5.3305632    877.69711   0.98439426 
   52300   0.88081946   -6.5195759    8.0934109  0.012895811  0.013924589            3    5.5241097    877.75004   0.98433491 
   52400   0.92748102   -6.5230928    8.1726494  0.012997216  0.013924927            3    5.2595181    881.97449   0.97962018 
   52500    0.8750677   -6.4796575    8.1438107  0.012926684   0.01392545            2    5.6007983    879.37529   0.98251566 
   52600   0.91390912   -6.4529272    8.1326227  0.012884383  0.013925529            3    6.0231394    875.93952   0.98636947 
   52700   0.88697747   -6.4933565    8.1336954  0.012861631  0.013925357            2    5.7911411    875.41671   0.98695854 
   52800   0.88842667   -6.4227046    8.1659365  0.012888157  0.013924744            5    5.8795295    880.23057     0.981561 
   52900   0.89346675   -6.4664722    8.1884659  0.012899285  0.013924455            7    5.5534863    881.80524    0.9798082 
   53000   0.86957004   -6.4563466    8.1655813  0.012838964  0.013923555            5    5.8058666     878.9892   0.98294723 
   53100   0.89893275   -6.5010434    8.1576681  0.012802367  0.013922153            3    5.7280686    876.69127   0.98552367 
   53200   0.82891368   -6.4373325    8.1768417  0.012808336  0.013920667            7    6.0684634    874.68384   0.98778548 
   53300   0.87809437   -6.4465008    8.2675744  0.012926164  0.013919934            5    5.5829521    882.36133   0.97919069 
   53400   0.86558717   -6.4659766    8.2843559  0.012928146  0.013919729            6    5.5878885    880.63504   0.98111018 
   53500   0.86877111   -6.5352578    8.2668892  0.012876774  0.013918916            8    5.4125742    878.41244   0.98359263 
   53600   0.88461176   -6.4887428    8.2908194  0.012889955  0.013918033           13    5.7520394    877.24526   0.98490131 
   53700   0.85006066   -6.5503008    8.3613766  0.012975445  0.013917628            9    4.9388765    884.24216    0.9771079 
   53800    0.8104152    -6.489345    8.3327242  0.012906946   0.01391666            4    5.5048725    879.83121   0.98200654 
   53900    0.8719337   -6.4530605    8.3610967  0.012926866  0.013916197            7    5.6260293    881.01093   0.98069158 
   54000   0.89028956   -6.5026571    8.3731367  0.012921507  0.013915812           10    5.5787191    879.03308   0.98289817 
   54100   0.86070362    -6.550732     8.378274  0.012905536  0.013915218            9     5.660104    873.57963   0.98903405 
   54200   0.89989979   -6.5393358    8.3731784   0.01287389  0.013914584           24    5.6006069    876.08925   0.98620089 
   54300   0.89752551   -6.4815286    8.4347158  0.012944622  0.013913645           14    5.3721199    883.79451   0.97760282 
   54400   0.87110024   -6.4709948    8.4319202  0.012916544  0.013913278           15    5.4131504    883.72268   0.97768228 
   54500    0.8779246   -6.5621033    8.4016892  0.012846619  0.013911685           13    5.5192944    875.29998   0.98709016 
   54600   0.86133465   -6.5331384    8.4145821  0.012842769  0.013910192            7    5.4243258    878.45937   0.98354008 
   54700   0.88192717   -6.5100449    8.3949213  0.012789338  0.013907926            8    5.6115363    877.71547   0.98437367 
   54800   0.87305378   -6.4821392    8.3783899   0.01274086  0.013905452           21    5.8952987    875.69387   0.98664617 
   54900   0.89259145    -6.465735    8.4654002  0.012849727  0.013903654           16    5.7627015    878.87217   0.98307812 
   55000   0.89833889   -6.5300125    8.4921978  0.012866966  0.013902559           18    5.4874902     877.6062   0.98449624 
   55100   0.88285834   -6.5413113    8.4939764  0.012846304  0.013901276           20    5.5749308    875.18481   0.98722006 
   55200   0.90800789   -6.4837155    8.4945274  0.012823864  0.013899886           11    5.9636365    874.65239     0.987821 
[...]
   89400   0.87005671   -6.4983944    13.291518  0.012389558  0.012561433            4    5.6512986    878.03447   0.98401604 
   89500   0.89368028   -6.5133103    13.341507   0.01242226  0.012561623           10    5.3183672    881.42266   0.98023347 
   89600   0.84890437   -6.4934875    13.423139  0.012484318  0.012562062            3    5.0717298    886.23275   0.97491319 
   89700   0.89338234   -6.4777727    13.373039  0.012423857  0.012562337            5     5.344835    883.42719   0.97800929 
   89800   0.87120339   -6.4873849    13.407312  0.012441826  0.012562679            4     5.508613    880.27841   0.98150766 
   89900   0.86741786   -6.4600141    13.387087  0.012409238  0.012563063            6    5.7438236    879.95921   0.98186369 
   90000    0.8922475   -6.4605466    13.382246  0.012390969  0.012563323            5    5.9509267    876.63525   0.98558666 
   90100   0.92378956   -6.4774643    13.425748  0.012417451  0.012564004            7     5.970056    875.10383   0.98731142 
   90200    0.9330228   -6.4494936    13.372249  0.012354258  0.012564583            7    6.2185096    874.14639    0.9883928 
   90300   0.87752467   -6.4358656    13.413492  0.012378637  0.012564794            3    5.9126689    878.57537   0.98341023 
   90400   0.91551535   -6.5018268    13.370759  0.012325552  0.012564653            4    5.4848565     880.3146   0.98146731 
   90500   0.83244196   -6.4653493     13.36068  0.012302652  0.012564224            3    5.7893734    877.61499   0.98448637 
   90600   0.87833079   -6.4253719    13.522472  0.012437888   0.01256417            8     5.586022    884.31841   0.97702365 
   90700   0.88226409   -6.4658784    13.466874  0.012373092  0.012564357            6    5.6077861     880.5322   0.98122476 
   90800   0.86082393   -6.4800486     13.43638  0.012331479   0.01256414            8    5.6379396    878.89138   0.98305663 
   90900   0.86707085   -6.4526131    13.429099  0.012311238  0.012563692            2     5.780014    878.69994    0.9832708 
   91000   0.93373992   -6.4789586    13.393957  0.012265529  0.012563206            2    5.9926088     874.7453   0.98771608 
   91100    0.8689942   -6.4903105    13.355785  0.012217147  0.012562601            3    6.1787093    871.04007   0.99191763 
   91200   0.91608671   -6.5307391    13.417318  0.012259976  0.012561864            3    5.7714969    874.17248    0.9883633 
   91300   0.94120368   -6.4918375    13.470197  0.012294813  0.012561459            3    5.7823532    876.83017   0.98536755 
   91400   0.85631645   -6.4543255    13.483835  0.012293795  0.012561191            2    5.9745891     875.7954   0.98653178 
   91500    0.9104663   -6.4898451    13.475818  0.012273058  0.012560787            5    5.8162735    876.15016   0.98613233 
   91600   0.87311958   -6.4710003    13.498432  0.012280233  0.012560208            8    5.6490436    879.54349   0.98232778 
   91700   0.88899766   -6.4614915     13.47409   0.01224472  0.012559507            4    5.8726989    877.32929   0.98480697 
   91800   0.87049054   -6.5241398    13.443999  0.012204066  0.012558575            3    5.7964256    873.29863   0.98935229 
   91900   0.90032843   -6.5191056    13.415977  0.012165377  0.012557411            7    5.8745047    872.24505   0.99054733 
   92000   0.93410807   -6.4767442    13.499081  0.012227429  0.012556154            3    5.4234636    883.55386   0.97786908 
   92100   0.89940215   -6.4522592    13.446767  0.012166817  0.012555015            4    5.8701052    878.09921   0.98394348 
   92200   0.86437896   -6.5207499    13.427873  0.012136545  0.012553324            5    5.5846228    876.53911   0.98569475 
   92300   0.87057145   -6.4700166    13.463487  0.012155549    0.0125518            3    5.8141622    876.88162   0.98530973 
   92400   0.91236323   -6.5077504    13.513656   0.01218764  0.012550519            5    5.5959032    877.60555   0.98449696 
   92500   0.88210953    -6.540993    13.512088  0.012173052  0.012549223            4    5.5783993    875.24065   0.98715707 
   92600   0.85771171   -6.4735942    13.486245   0.01213665  0.012547758            4     5.956794    874.28206   0.98823943 
   92700   0.87886347   -6.4504767     13.57365  0.012202131  0.012546537            8     5.974215    876.03603    0.9862608 
   92800   0.87323672   -6.4712413    13.579506   0.01219424  0.012545663            8    6.0890632    873.56638   0.98904906 
   92900     0.864871   -6.5103068    13.548054  0.012152901  0.012544572            6    6.2384645    867.75187   0.99567633 
   93000    0.8959095   -6.5229971    13.599699   0.01218611  0.012543458            4    6.0086617    870.95456   0.99201501 
   93100   0.90237238   -6.4901942    13.588662  0.012163142  0.012542511            6    6.2444603    869.83589   0.99329082 
   93200    0.9226806   -6.5396357    13.649925  0.012204868  0.012541635            3     5.945531    871.03145   0.99192744 
   93300   0.93826967   -6.4807842     13.71971  0.012254118  0.012541086            3    5.8060135    876.87048   0.98532226 
   93400    0.8879084   -6.4811441    13.727233   0.01224771  0.012540541            3    6.0660155    872.84022   0.98987189 
   93500   0.87440385   -6.4694727     13.75522  0.012259554  0.012540067            2    6.0092487    875.25107   0.98714532 
   93600    0.8791205   -6.4358216    13.908719  0.012383118  0.012539714            2    5.3751189    886.44031   0.97468492 
   93700   0.87607963   -6.4639637    13.980697  0.012433918  0.012539844            3      5.14534    887.24297   0.97380315 
   93800   0.88093268    -6.519275    13.896609  0.012345957   0.01253986            4    5.4065495    879.50588   0.98236979 
   93900   0.87371457   -6.5440428    13.864436  0.012304257  0.012539539            7    5.6859257    873.10509    0.9895716 
   94000   0.92158429   -6.5349251    13.842712  0.012271907  0.012539087            6    5.5616922    877.01306   0.98516207 
   94100   0.89263409   -6.5149467    13.855689  0.012270358  0.012538546           17     5.682087    876.16933   0.98611075 
   94200    0.8468149   -6.5353366    13.768534  0.012180232  0.012537624            5     5.906282    870.12885   0.99295638 
   94300   0.89595178   -6.5134059    13.846636  0.012236335  0.012536782            5    5.9130104    873.11363   0.98956192 
   94400   0.92153641    -6.509497    13.873818  0.012247368  0.012536176            5    5.6943409    876.60778   0.98561753 
   94500   0.91157545   -6.4755367    13.906796  0.012263488  0.012535715            3    5.9857317    875.44047   0.98693176 
   94600   0.87086197   -6.4886916    13.872863  0.012220634  0.012535173            2    6.1927393    871.04001    0.9919177 
   94700   0.90841991    -6.458164    13.904363  0.012235448  0.012534637            8    6.2912832    872.13625   0.99067089 
   94800   0.93843523   -6.4653359    13.918068  0.012234589  0.012534286            9    6.1378224    874.04028    0.9885128 
   94900   0.84673859   -6.4514848    13.897812  0.012203909  0.012533509            5    6.2126395    872.66739   0.99006793 
   95000   0.89474904    -6.449509    13.969645  0.012254075   0.01253287            3    6.0419656    876.12442   0.98616131 
   95100   0.90882653   -6.4637292    14.059556  0.012319975  0.012532639            4    5.6348828    881.29111    0.9803798 
   95200    0.8901592   -6.5194756    14.088027  0.012331957  0.012532437            4     5.618989    877.42307   0.98470171 
   95300   0.88869135   -6.4828594    14.140164  0.012364607  0.012532402            3    5.6249931     879.6988   0.98215435 
   95400   0.86907586   -6.4540481    14.122288   0.01233603  0.012532406            4    5.8047269    878.40582   0.98360005 
   95500   0.89071533   -6.4714338    14.085508  0.012291019   0.01253233            1    6.0409545    873.79228   0.98879335 
   95600   0.92488067   -6.4415587    14.216638  0.012392466  0.012532479            6    5.8239312    880.13191   0.98167103 
   95700   0.88557884   -6.4671728    14.154488  0.012325399  0.012532536            7    5.9485243    875.92875    0.9863816 
   95800   0.88756887   -6.4048007    14.174508  0.012329948  0.012532604            8    6.1992589    877.43191   0.98469179 
   95900   0.86977247   -6.4484151    14.174581  0.012317154  0.012532526           12    5.8983624    877.75092   0.98433391 
   96000   0.86652416   -6.4469964    14.202249  0.012328341  0.012532337            6    5.8831635    878.37078   0.98363927 
   96100   0.90435618   -6.4058678    14.234794  0.012343734  0.012532415            3    6.0522501    879.71986   0.98213083 
   96200   0.90844204   -6.4869378    14.188832  0.012291088  0.012532415            5    6.0514694    873.64007   0.98896563 
   96300    0.8980959   -6.4715693     14.20545  0.012292705  0.012532241            4    5.9424715    876.17854   0.98610039 
   96400   0.89402061    -6.500535    14.239488  0.012309378   0.01253206            6    5.6455529    877.90685   0.98415909 
   96500   0.88464524   -6.4818902    14.255849   0.01231075  0.012531704            4    5.6723559    878.70537   0.98326474 
   96600   0.87904916   -6.4585657    14.303948    0.0123395  0.012531556            6    5.6937606    879.87627   0.98195625 
   96700    0.8601405   -6.5265613    14.248164  0.012278666  0.012531189            3    5.7258714    874.10331   0.98844151 
   96800   0.86263239   -6.4659416    14.362093  0.012364061   0.01253094            2    5.7037919    879.60837   0.98225532 
   96900   0.89255692   -6.5032719    14.361592   0.01235087  0.012530901            7     5.502275    879.37761   0.98251308 
   97000   0.88841412   -6.5352037    14.374326  0.012349077  0.012530769            4    5.3049258    879.96195   0.98186064 
   97100   0.85273268   -6.5334356    14.421394  0.012376754  0.012530521            8    5.2127481    881.22942   0.98044843 
   97200   0.86368804    -6.519811    14.423841  0.012366119  0.012530288            3    5.4172606    880.10153   0.98170492 
   97300   0.88279851   -6.4705749    14.511798  0.012428741  0.012530464            5    5.3858697    884.50049   0.97682252 
   97400   0.87959832   -6.4820377    14.483958  0.012392161  0.012530602            2    5.2940755    885.03204   0.97623584 
   97500   0.83304857   -6.5031399    14.476027  0.012372673   0.01253046            9    5.3342495    881.07587    0.9806193 
   97600   0.86868624   -6.4701327    14.476688   0.01236056  0.012530345            4    5.4676341    882.32994   0.97922553 
   97700   0.88309984   -6.4926797    14.487138  0.012356822  0.012530152            6    5.3588498    882.61597   0.97890818 
   97800   0.83404898   -6.4285115    14.508654   0.01236252  0.012530045            3     5.824447       879.04   0.98289043 
   97900   0.87626108   -6.4681261    14.566517  0.012399146  0.012530073           10    5.2092886     885.9979   0.97517161 
   98000    0.8684745   -6.5207747    14.488535  0.012320183  0.012529838           14     5.492612    877.58255   0.98452276 
   98100   0.87260949   -6.5297352    14.515547   0.01233057  0.012529505           15    5.4111545    879.50141   0.98237478 
   98200   0.88596422    -6.504666    14.583906  0.012376024  0.012529325           13    5.3262874    882.66795   0.97885054 
   98300    0.8631248    -6.468084    14.595849  0.012373558  0.012529302            5    5.5970307    880.11786   0.98168671 
   98400   0.87060369   -6.5046755    14.548373  0.012320777  0.012529307            7    5.9539036    872.13893   0.99066786 
   98500    0.8681276   -6.4671528     14.50959  0.012275456  0.012529015            6    6.2418247    871.34316    0.9915726 
   98600   0.91973993   -6.4507112    14.648617  0.012380508  0.012529224            4    5.8598569    879.09158   0.98283275 
   98700   0.89597779   -6.4916664    14.651511  0.012370408  0.012529435            1    5.7174114    877.78099   0.98430019 
   98800   0.84484058   -6.4283675    14.632858  0.012342154  0.012529464            2    6.1501452    875.76796    0.9865627 
   98900    0.9059063   -6.4758987     14.68793  0.012376078  0.012529591            5    5.7075243    878.61469   0.98336622 
   99000   0.90106948   -6.5432733    14.700091  0.012373814  0.012529698            4    5.3337625    878.82411   0.98313188 
   99100   0.88125803   -6.5128139    14.699269  0.012360637  0.012529682            3     5.659317     876.6818   0.98553431 
   99200   0.87350553   -6.4541258    14.701569  0.012350108  0.012529688            2    6.0429621    874.65903    0.9878135 
   99300   0.90319177   -6.4579332    14.703871  0.012339603  0.012529755            5    6.0274402    876.10488   0.98618329 
   99400   0.88120004   -6.4430222    14.661228  0.012291438  0.012529742            3    6.0987589    875.43764   0.98693495 
   99500   0.90544428   -6.4939511    14.668836  0.012285457  0.012529414            2    5.7217622    877.15189   0.98500614 
   99600   0.88858098   -6.5300831    14.702315  0.012301134  0.012529142            2    5.6670941    874.70081   0.98776632 
   99700   0.88346492   -6.5382824    14.711892  0.012296801  0.012528754            2    5.6490009    874.11048   0.98843341 
   99800   0.90117029   -6.5104097    14.836829  0.012388802  0.012528545            2    5.1732176    884.01383   0.97736028 
   99900   0.90121144   -6.4661197    14.780521   0.01232943  0.012528294            3    5.3949929    884.51587   0.97680554 
  100000   0.85882251   -6.5087458    14.757782  0.012298152  0.012527802            5    5.6036807    877.61519   0.98448615 
  100100   0.90201616   -6.5715388    14.706853  0.012243467   0.01252718           10    5.4152669    875.65646   0.98668832 
  100200   0.89079913   -6.5109569    14.672807  0.012202933  0.012526247            4    5.9728855    872.55621   0.99019409 
  100300   0.91839195   -6.4715944     14.72066  0.012230525  0.012525618            3      6.00069    874.47148   0.98802536 
  100400   0.87089624   -6.4940768     14.66174  0.012169439  0.012524887            4    6.3507762    867.57078   0.99588416 
  100500   0.89362249   -6.5053665    14.755574  0.012235136  0.012524322            5    6.3046281    868.13764   0.99523388 
  100600    0.8717418   -6.4417651    14.728018  0.012200147  0.012523758            5    6.3973951    870.78669   0.99220625 
  100700   0.90972765   -6.5125263    14.796147  0.012244411  0.012523072            3    5.8098985    874.43603   0.98806542 
  100800   0.87094739   -6.5500941     14.75063  0.012194635   0.01252226            1    5.7166255    872.69472   0.99003693 
  100900   0.88263087   -6.4931888    14.841921  0.012257946   0.01252144            3    5.6501122    878.50779   0.98348588 
  101000   0.91251923   -6.5206115     14.90686  0.012299389  0.012520955            5    5.3085032    880.89125   0.98082482 
  101100   0.84587953    -6.503459     14.87534  0.012261243  0.012520322            2     5.511585    878.15561    0.9838803 
  101200   0.84269474   -6.5252581    14.817183  0.012201238  0.012519317            3     5.584925    876.48357   0.98575721 
  101300     0.858056   -6.6163519    14.833171  0.012202345  0.012518017            3    5.1417276    875.83181   0.98649078 
  101400   0.86708271   -6.5205958    14.860724  0.012212955  0.012516883            5    5.7476315    873.93586    0.9886309 
  101500   0.83805371   -6.4849234    14.887471  0.012222882  0.012515966            5    5.6535686    877.69042   0.98440177 
  101600   0.89892469   -6.5034951    14.972466  0.012280566   0.01251519            4    5.1417946    884.89014   0.97639239 
  101700   0.88729349   -6.5488305    14.962784  0.012260557  0.012514226            2    5.1020958    881.50511    0.9801418 
  101800    0.8505785   -6.4930412    14.932879  0.012224033  0.012513392            2    5.8648763    874.15582   0.98838214 
  101900   0.91850649   -6.4624895    15.013341  0.012277838   0.01251277            6    5.7785912    879.13022   0.98278956 
  102000   0.87255399   -6.4694567    14.991915  0.012248297  0.012512262            3    5.7361967    878.36976   0.98364042 
  102100   0.90500484   -6.5100869    14.945722  0.012198598    0.0125115            4    5.8880468    873.21602   0.98944589 
  102200     0.911779   -6.4690947    14.937472  0.012179935  0.012510662            3    6.0469143    874.81523   0.98763713 
  102300   0.91102122   -6.4717661    15.003426  0.012221754  0.012509976            4    5.9082529    875.44951   0.98692157 
  102400   0.85834638    -6.493444    14.950124  0.012166442  0.012509044            3     5.970321      872.502   0.99025561 
  102500   0.89590277   -6.4742468    15.000679  0.012195674  0.012508051            2    5.8925045    876.59858   0.98562788 
  102600   0.88679113   -6.4561488    15.021951  0.012201065  0.012507303            3    5.8881048    877.09321   0.98507204 
  102700   0.86819582   -6.5397914    15.014416   0.01218307  0.012506265            2    5.5951807    875.17192    0.9872346 
  102800   0.88618285   -6.5379564    15.051858  0.012201571   0.01250515            3    5.5043177     876.4575   0.98578653 
  102900   0.89662104   -6.4810407    15.095671  0.012225195  0.012504215            3    5.6756051    879.11658    0.9828048 
  103000   0.86166976   -6.4346875    15.092377  0.012210661  0.012503487            5    5.9638019    878.17402   0.98385967 
  103100   0.90008116   -6.4434377    15.105103  0.012209104   0.01250269            4    5.7463422    880.31833   0.98146315 
  103200   0.90592931   -6.5348136    15.114547  0.012204899  0.012501829            4    5.4813507    877.65254   0.98444425 
  103300   0.85446327   -6.4998226    15.170248  0.012238019  0.012501041            3    5.7036671    875.93903   0.98637002 
  103400   0.90052024   -6.5005951    15.196482  0.012247326  0.012500338            5    5.5024471     879.7803   0.98206336 
  103500   0.88411865   -6.4445973    15.152154  0.012199802  0.012499712            6    6.0559424    876.75867   0.98544791 
  103600   0.88001474   -6.4998432     15.14189   0.01217977  0.012498864            5    5.9758428    873.11471    0.9895607 
  103700     0.823218   -6.5206178     15.16561  0.012187086  0.012497992            4    6.0402797    869.07822   0.99415677 
  103800   0.88327591   -6.5710033    15.252901  0.012245425  0.012497187           12    5.5760403    873.24189   0.98941658 
  103900   0.87386163   -6.4795751    15.280772  0.012255993  0.012496673            2     5.806823    875.81879   0.98650544 
  104000   0.88963555   -6.5556792    15.259199  0.012226922  0.012495986            2     5.527639    874.81481    0.9876376 
Loop time of 188.952 on 12 procs for 100000 steps with 864 atoms

Performance: 91451.773 tau/day, 529.235 timesteps/s
99.4% CPU use with 12 MPI tasks x no OpenMP threads

MPI task timing breakdown:
Section |  min time  |  avg time  |  max time  |%varavg| %total
---------------------------------------------------------------
Pair    | 9.3004     | 10.134     | 10.664     |  14.0 |  5.36
Neigh   | 0.94003    | 0.99981    | 1.0923     |   3.8 |  0.53
Comm    | 7.37       | 8.3669     | 9.3893     |  19.5 |  4.43
Output  | 1.9329     | 1.934      | 1.9409     |   0.2 |  1.02
Modify  | 165.31     | 165.73     | 166.33     |   2.4 | 87.71
Other   |            | 1.784      |            |       |  0.94

Nlocal:        72.0000 ave          77 max          67 min
Histogram: 1 2 0 2 1 0 1 1 2 2
Nghost:        1574.83 ave        1601 max        1547 min
Histogram: 1 0 0 2 4 2 0 2 0 1
Neighs:        8142.58 ave        8884 max        7463 min
Histogram: 3 1 1 0 2 0 0 1 2 2
FullNghs:      16284.1 ave       17338 max       15092 min
Histogram: 1 1 1 3 0 0 2 0 2 2

Total # of neighbors = 195409
Ave neighs/atom = 226.16782
Neighbor list builds = 5232
Dangerous builds = 0

#clear
#
#next RN
#
#jump SELF



Total wall time: 0:03:09
