
units lj                  # Use reduced LJ style units
atom_style atomic         # Uncharged point particles
atom_modify map hash      # Needed for indexing of clusters etc
                          # Used to be able to find where atoms are in relation to each other.

# Define a lattice with which to populate the simulation cell. With units
# set to 'lj' the second argument to the lattice command is the reduced
# density rho* and the spacings are multiples of that required to acheive
# that density. Also define a simulation cell called 'box' in lattice units
# and fill it with atoms. Here we're creating a box which is ten lattice
# constants in each direction.
lattice fcc 1.0 spacing 1 1 1                 # All equal sizes - gives the right reduced density.
Lattice spacing in x,y,z = 1.5874011 1.5874011 1.5874011

region box block 0 6 0 6 0 6 units lattice # Defines a region, "box", in lattice units
create_box 1 box                              # Creates a simulation box as specified above,
Created orthogonal box = (0.0000000 0.0000000 0.0000000) to (9.5244063 9.5244063 9.5244063)
  2 by 2 by 3 MPI processor grid
                                              # with one type of atom
create_atoms 1 box                            # Creates particles on lattice points
Created 864 atoms
  using lattice units in orthogonal box = (0.0000000 0.0000000 0.0000000) to (9.5244063 9.5244063 9.5244063)
  create_atoms CPU = 0.001 seconds


# Set the mass of the first (and only) atom type.
mass 1 1.0

# Lennard-Jones interactions between particles, 3.5 sigma cut-off. Apply
# long range tail corrections to energy and pressure and set all coefficients
# to unity since we work in reduced units here. Note that this doesn't shift
# the potential such that it goes to zero at the cutoff. That would require
# pair_modify('shift', 'yes').
pair_style lj/cut  3.5      # non-GPU version
pair_modify tail  yes
pair_coeff 1  1  1.0  1.0   # Intearaction between 1 and 1 set with epsilon = 1 and sigma = 1

write_data data.*
System init for write_data ...
Neighbor list info ...
  update every 1 steps, delay 10 steps, check yes
  max neighbors/atom: 2000, page size: 100000
  master list distance cutoff = 3.8
  ghost atom cutoff = 3.8
  binsize = 1.9, bins = 6 6 6
  1 neighbor lists, perpetual/occasional/extra = 1 0 0
  (1) pair lj/cut, perpetual
      attributes: half, newton on
      pair build: half/bin/atomonly/newton
      stencil: half/bin/3d
      bin: standard

#############################
#   M E L T   S Y S T E M   #
#############################

velocity all create 2.4 2750902 mom yes dist gaussian # Assign velocities
                                                    # Temperature 2.4, random number seed, zero linear momentum
						                                                        # Gaussian distribution

timestep 0.002   # simulation timestep
thermo 100       # output thermodynamic data every 100 steps

# Define a fix  in this case with index 1 applied to all
# particles in the simulation. This fix is for simulations
# in the anisotropic NPT ensemble. Note that we use the MTK
# correction.
fix 1 all npt temp 2.4 2.4 0.1 iso 5.68 5.68 0.5 mtk yes tchain 5 pchain 5 # Use NPT ensemble
                                                                         # Set temperature and pressure and damping
                                                                         # Numbers of thermostats in chain and in barostat
run 1000         # run for 10000 steps
Per MPI rank memory allocation (min/avg/max) = 3.633 | 3.633 | 3.634 Mbytes
Step Temp E_pair E_mol TotEng Press Volume 
       0          2.4   -8.3859253            0    -4.790092     -2.24275          864 
     100    1.3007594   -6.4407842            0   -4.4919034    5.3582762    891.69205 
     200    1.5828213   -6.0796178            0   -3.7081338    6.4338598    907.46239 
     300    1.7629056     -5.73851            0   -3.0972122    5.5953229    954.02439 
     400    1.8733232   -5.2785237            0   -2.4717912    6.0585808    994.36537 
     500      2.02574   -4.9360708            0   -1.9009777    5.7478153    1042.8978 
     600    2.2112838   -4.6895875            0   -1.3765009    5.7138268    1079.0368 
     700    2.3146746   -4.4629638            0  -0.99497044    5.6088298    1118.0222 
     800    2.4734008     -4.39503            0   -0.6892229    5.7937797    1123.7282 
     900    2.4206618   -4.2767239            0  -0.64993368    5.5531987    1146.9555 
    1000    2.3618098   -4.2459295            0  -0.70731524    5.7000582    1143.3852 
Loop time of 0.197556 on 12 procs for 1000 steps with 864 atoms

Performance: 874689.553 tau/day, 5061.861 timesteps/s
98.5% CPU use with 12 MPI tasks x no OpenMP threads

MPI task timing breakdown:
Section |  min time  |  avg time  |  max time  |%varavg| %total
---------------------------------------------------------------
Pair    | 0.069756   | 0.080477   | 0.10521    |   3.7 | 40.74
Neigh   | 0.012073   | 0.013363   | 0.016589   |   1.2 |  6.76
Comm    | 0.058408   | 0.086391   | 0.09887    |   4.1 | 43.73
Output  | 0.00018728 | 0.00019965 | 0.00025992 |   0.0 |  0.10
Modify  | 0.014907   | 0.01549    | 0.015924   |   0.2 |  7.84
Other   |            | 0.001634   |            |       |  0.83

Nlocal:        72.0000 ave          80 max          66 min
Histogram: 2 1 2 2 1 0 2 0 0 2
Nghost:        1314.75 ave        1327 max        1295 min
Histogram: 1 0 0 2 3 0 0 1 2 3
Neighs:        6211.67 ave        7136 max        5326 min
Histogram: 2 0 0 2 1 4 1 0 0 2

Total # of neighbors = 74540
Ave neighs/atom = 86.273148
Neighbor list builds = 80
Dangerous builds = 2

# Equilibrate just above the melting temperature to avoid step fn in T

fix 1 all npt temp 1.25 1.25 0.1 iso 5.68 5.68 0.5 mtk yes tchain 5 pchain 5
run 1000
Per MPI rank memory allocation (min/avg/max) = 3.634 | 3.634 | 3.634 Mbytes
Step Temp E_pair E_mol TotEng Press Volume 
    1000    2.3618098   -4.2459295            0  -0.70731524    5.7000582    1143.3852 
    1100    1.8617945   -4.5967525            0    -1.807293    5.9593679    1083.5566 
    1200      1.66126   -5.0091582            0   -2.5201524    5.9308167    1028.0056 
    1300    1.4533368   -5.3154554            0   -3.1379734    5.5185254    997.93023 
    1400    1.3100587   -5.5224566            0    -3.559643    5.2858775     978.0358 
    1500    1.3306301   -5.7450087            0   -3.7513736    5.2687861    956.68836 
    1600    1.2302857    -5.777427            0   -3.9341343     5.385203    950.58576 
    1700    1.2545134   -5.8251615            0   -3.9455694    5.6370291    940.07281 
    1800    1.2669685   -5.8434457            0   -3.9451925    6.1076728    931.13358 
    1900    1.2975362   -5.8185374            0   -3.8744858    5.5765884    942.23221 
    2000    1.2225624   -5.8503078            0   -4.0185867    5.1330896    948.19804 
Loop time of 0.166424 on 12 procs for 1000 steps with 864 atoms

Performance: 1038308.981 tau/day, 6008.733 timesteps/s
99.7% CPU use with 12 MPI tasks x no OpenMP threads

MPI task timing breakdown:
Section |  min time  |  avg time  |  max time  |%varavg| %total
---------------------------------------------------------------
Pair    | 0.068436   | 0.075572   | 0.081519   |   1.6 | 45.41
Neigh   | 0.009681   | 0.010499   | 0.01157    |   0.5 |  6.31
Comm    | 0.057064   | 0.064192   | 0.072091   |   1.9 | 38.57
Output  | 0.00017838 | 0.00018619 | 0.00024556 |   0.0 |  0.11
Modify  | 0.013866   | 0.014133   | 0.014501   |   0.2 |  8.49
Other   |            | 0.001843   |            |       |  1.11

Nlocal:        72.0000 ave          79 max          65 min
Histogram: 1 1 0 4 0 1 1 3 0 1
Nghost:        1466.08 ave        1476 max        1447 min
Histogram: 1 1 0 0 2 0 0 4 1 3
Neighs:        7466.67 ave        8131 max        6694 min
Histogram: 1 0 2 0 3 1 3 0 0 2

Total # of neighbors = 89600
Ave neighs/atom = 103.70370
Neighbor list builds = 67
Dangerous builds = 0


# Small amount of linear quench

fix 1 all npt temp 1.25 ${temp} 0.1 iso 5.68 5.68 0.5 mtk yes tchain 5 pchain 5
fix 1 all npt temp 1.25 0.5 0.1 iso 5.68 5.68 0.5 mtk yes tchain 5 pchain 5
run 2000
Per MPI rank memory allocation (min/avg/max) = 3.634 | 3.634 | 3.634 Mbytes
Step Temp E_pair E_mol TotEng Press Volume 
    2000    1.2225624   -5.8503078            0   -4.0185867    5.1330896    948.19804 
    2100    1.2312511   -5.8731076            0   -4.0283685    5.3824073    940.68679 
    2200     1.200115   -5.9262223            0   -4.1281333    5.7000498    929.13405 
    2300    1.1692598   -5.9435274            0   -4.1916677    6.3137833    916.85633 
    2400    1.1426142   -6.0129907            0   -4.3010531    5.8535956    918.46382 
    2500    1.0497059   -6.0395871            0   -4.4668508    5.9826508     911.6189 
    2600    1.0421536   -6.1345956            0   -4.5731744    5.7626471    907.33826 
    2700    1.0521503   -6.2506639            0   -4.6742651    5.4284482    904.10631 
    2800   0.95236141   -6.2390202            0   -4.8121314    5.7068021    898.54388 
    2900   0.89804238   -6.2531677            0   -4.9076632    5.8964106    893.62642 
    3000   0.89023258   -6.3215651            0   -4.9877618    5.7205347    891.66218 
    3100   0.87260879   -6.3508588            0   -5.0434606    6.0053364     884.0681 
    3200   0.85132837   -6.4204978            0   -5.1449832    5.9795594    878.92498 
    3300   0.78384444   -6.4720491            0   -5.2976433    5.9301375    875.03461 
    3400    0.7753962   -6.5885252            0   -5.4267771     5.594196     869.5481 
    3500   0.71354864   -6.6497943            0   -5.5807102    5.4289861    866.72925 
    3600   0.68353648   -6.7262874            0   -5.7021694    5.2776377    862.90454 
    3700   0.64309987   -6.7712627            0   -5.8077294    5.4358675    856.42643 
    3800   0.61775976   -6.8534916            0   -5.9279245    5.4508323     850.9883 
    3900   0.57577022   -6.8922457            0     -6.02959    5.7300491    843.75439 
    4000   0.54056621   -6.9355107            0   -6.1255999    5.9605477    837.67313 
Loop time of 0.344457 on 12 procs for 2000 steps with 864 atoms

Performance: 1003317.137 tau/day, 5806.233 timesteps/s
99.8% CPU use with 12 MPI tasks x no OpenMP threads

MPI task timing breakdown:
Section |  min time  |  avg time  |  max time  |%varavg| %total
---------------------------------------------------------------
Pair    | 0.15179    | 0.16685    | 0.1845     |   2.3 | 48.44
Neigh   | 0.015871   | 0.0172     | 0.018653   |   0.6 |  4.99
Comm    | 0.10771    | 0.12682    | 0.14293    |   2.8 | 36.82
Output  | 0.00036698 | 0.00038471 | 0.00049929 |   0.0 |  0.11
Modify  | 0.028042   | 0.028665   | 0.029333   |   0.2 |  8.32
Other   |            | 0.004529   |            |       |  1.31

Nlocal:        72.0000 ave          76 max          69 min
Histogram: 2 3 0 0 2 2 0 0 2 1
Nghost:        1612.00 ave        1632 max        1596 min
Histogram: 1 1 3 2 0 2 0 1 1 1
Neighs:        8548.25 ave        9150 max        7730 min
Histogram: 2 0 0 2 0 2 1 2 0 3

Total # of neighbors = 102579
Ave neighs/atom = 118.72569
Neighbor list builds = 103
Dangerous builds = 0

#############################
# F R E E Z E  S Y S T E M  #
#############################

# Define solid atoms. This closely follows ten Wolde  Ruiz-Montero and Frenkel  Faraday Discuss  1996  104  93-110
# Compute components of the per-atom q6 vector
compute q6 all orientorder/atom degrees 1 6 components 6 nnn NULL cutoff 1.3 # compute the Q6 parameter.
                                                                             # Use all neighbours within 1.3 unit cell.

# get number of connections
compute coord_number all coord/atom orientorder q6 0.5

# An atom is solid if it has 8 or more connections (of a possible 14)
variable is_solid atom c_coord_number>=8
group solid dynamic all var is_solid    # Must be dynamic to update
dynamic group solid defined

# do clustering
compute cluster solid cluster/atom 1.3 # Create a cluster where all atoms within are solid and max 1.3 units from another member

# define chunks one chunk per cluster
compute clus_chunks solid chunk/atom c_cluster nchunk every compress yes  # Says which atoms are in which chunk

# count the size of each chunk
compute size_chunks solid property/chunk clus_chunks count


# Find the maximum entry in the vector of chunk sizes
variable max_n equal max(c_size_chunks)


# Thermo style which includes this variable
# thermo_style custom step temp pe vol v_max_n

thermo ${N}  # Print the thermo information every 100 steps
thermo 100  

# Reset the npt fix at a lower temperature (below freezing)

compute myRDF all rdf 100
fix 2 all ave/time 1 50 100 c_myRDF[*] file pcf.rdf mode vector


compute msd all msd com yes
variable twopoint equal c_msd[4]/6/(step*dt+1.0e-6)
fix 9 all vector 10 c_msd[4]
variable fit equal slope(f_9)/6/(10*dt)
thermo_style custom step temp pe c_msd[4] v_twopoint v_fit v_max_n press vol density


fix 1  all npt temp  ${temp} ${temp}  0.1  iso  5.68  5.68  0.5  mtk yes tchain  5  pchain  5
fix 1  all npt temp  0.5 ${temp}  0.1  iso  5.68  5.68  0.5  mtk yes tchain  5  pchain  5
fix 1  all npt temp  0.5 0.5  0.1  iso  5.68  5.68  0.5  mtk yes tchain  5  pchain  5

dump dmp2 all dcd ${N} traj.dcd
dump dmp2 all dcd 100 traj.dcd
dump dmp3 all dcd ${N} traj_unwrap.dcd
dump dmp3 all dcd 100 traj_unwrap.dcd
dump_modify dmp3 unwrap yes


# fix rnuntil all halt ${N} v_max_n >= 3980 error soft message no   # Stop when solidified

run 100000 # 5000000  # Run for this many steps
Neighbor list info ...
  update every 1 steps, delay 10 steps, check yes
  max neighbors/atom: 2000, page size: 100000
  master list distance cutoff = 3.8
  ghost atom cutoff = 3.8
  binsize = 1.9, bins = 5 5 5
  5 neighbor lists, perpetual/occasional/extra = 1 4 0
  (1) pair lj/cut, perpetual
      attributes: half, newton on
      pair build: half/bin/atomonly/newton
      stencil: half/bin/3d
      bin: standard
  (2) compute orientorder/atom, occasional
      attributes: full, newton on
      pair build: full/bin/atomonly
      stencil: full/bin/3d
      bin: standard
  (3) compute coord/atom, occasional
      attributes: full, newton on
      pair build: full/bin/atomonly
      stencil: full/bin/3d
      bin: standard
  (4) compute cluster/atom, occasional
      attributes: full, newton on
      pair build: full/bin/atomonly
      stencil: full/bin/3d
      bin: standard
  (5) compute rdf, occasional, copy from (1)
      attributes: half, newton on
      pair build: copy
      stencil: none
      bin: none
Per MPI rank memory allocation (min/avg/max) = 9.706 | 9.709 | 9.712 Mbytes
Step Temp PotEng c_msd[4] v_twopoint v_fit v_max_n Press Volume Density 
    4000   0.54056621   -6.9355107 7.8794787e-31 1.6415579e-32 8.3333333e+20           13    5.9605477    837.67313    1.0314286 
    4100   0.50815795   -6.9934894  0.022767715 0.00046275838  0.020728532           18    5.5086663    839.23287    1.0295116 
    4200   0.51221949   -7.0277862  0.035154521 0.00069751026  0.015575996           16    5.7121473    834.12573    1.0358151 
    4300   0.52167472   -7.0446787  0.045186957 0.00087571612  0.012228979           13    5.9354494    830.19092    1.0407245 
    4400   0.49334825   -7.0739432  0.058457811 0.0011071554  0.011209125           13    5.2719671    836.02429    1.0334628 
    4500   0.52102682   -7.0318405  0.068100041 0.0012611117  0.010704325           13    5.9913762    830.43167    1.0404227 
    4600   0.49756484   -7.0403792  0.077154685 0.0013977296  0.010108598            8    5.3104591    837.98932    1.0310394 
    4700   0.48948324   -7.0217931   0.08449879 0.0014982053 0.0095365495           12    6.3790435    826.12652    1.0458446 
    4800   0.50646609   -7.0806293  0.091399754 0.0015868011 0.0089994827            7    5.3820216    834.47145    1.0353859 
    4900   0.50016268   -7.0368487   0.10044758 0.0017082921 0.0085713669            9    5.7349928    832.96524    1.0372582 
    5000   0.49583103   -7.0995176   0.10754334 0.0017923888 0.0082927431           13    5.3456085    833.46531    1.0366358 
    5100   0.49887353   -7.0786891   0.10893254 0.0017799434 0.0078861238           11    5.8846961    828.23862    1.0431776 
    5200   0.48502817   -7.0531281    0.1186883 0.0019020559 0.0075365996            6    5.7675953    831.44512    1.0391546 
    5300   0.49279445   -7.0612808   0.11897396 0.0018706596 0.0072252593            7    5.5443041    833.72307    1.0363153 
    5400   0.50174911   -7.0901451   0.12104353 0.0018679555  0.006834302            7    5.6298779    830.73364    1.0400446 
    5500   0.51605592   -7.0735952     0.126738 0.0019202726 0.0065043947            7    5.6079735    832.03128    1.0384225 
    5600    0.4859197   -7.0481616   0.13282774 0.0019766031 0.0062508714           11    5.7434481     831.8237    1.0386816 
    5700   0.50544641   -7.0895666     0.136119 0.0019900436 0.0060346076           12    5.6578788    830.87378    1.0398691 
    5800   0.46815793   -7.0887013   0.13782414 0.0019802318 0.0058000634           21    5.7732458    828.56661    1.0427647 
    5900   0.49429956   -7.1122495   0.14342654 0.0020257984 0.0055962403           24    5.4854675     831.3619    1.0392586 
    6000   0.49788029   -7.0873026   0.14830067 0.0020597313 0.0054313191           18    5.7631886    829.23709    1.0419216 
    6100   0.52291174   -7.1001489   0.15207451 0.0020775205 0.0052788732           14    5.3382277    833.88269     1.036117 
    6200   0.50285792   -7.0851736   0.15803842 0.0021241722 0.0051590696           16    5.8981614    828.16408    1.0432715 
    6300   0.49572207   -7.1161432   0.16322522 0.0021590636 0.0050571816           25    5.5566994    829.65359    1.0413985 
    6400   0.48766958   -7.1320267   0.16449639   0.00214188 0.0049650121           20    5.4241277    830.25239    1.0406474 
    6500   0.49412477   -7.0533786    0.1658473 0.0021262473 0.0048412473           42    6.0288804    827.55261    1.0440424 
    6600   0.47733036   -7.0808558   0.17437743  0.002201735 0.0047404494           33    5.5339267    832.02572    1.0384294 
    6700   0.48874242   -7.1169859   0.17286788 0.0021500979 0.0046554584           32    5.8565014    825.89209    1.0461415 
    6800   0.52037877   -7.1231655   0.17755345    0.0021759 0.0045526891           32    5.6872314    827.73421    1.0438133 
    6900   0.52484083    -7.117653   0.18746229 0.0022640372 0.0044904766           54    5.5065664    830.47629    1.0403668 
    7000   0.48987375   -7.0872133   0.19297651 0.0022973393 0.0044473378           26    6.0276141    825.69439     1.046392 
    7100   0.48793956   -7.1161265   0.18917422 0.0022203545  0.004391459           27    5.7398533    826.90312    1.0448624 
    7200   0.48199274   -7.1464748   0.18985531 0.0021973993 0.0043060285           48    5.6501606    826.05079    1.0459405 
    7300   0.50265939   -7.1291838   0.19061558 0.0021759768  0.004221875           35    5.6970302    827.00885    1.0447288 
    7400    0.5245589   -7.1405024   0.18415616 0.0020738305 0.0041185126           37    5.3260601     830.8991    1.0398374 
    7500   0.49096819   -7.1082444   0.18584295 0.0020649215 0.0039966146           56    6.1392945    823.40514    1.0493012 
    7600   0.50884103   -7.1492409   0.19225827 0.0021080949 0.0038957445           31     5.295646    830.47262    1.0403714 
    7700   0.49099104   -7.1232262   0.20146753 0.0021803844   0.00382085           23    6.0621015    823.13101    1.0496506 
    7800   0.50341385   -7.1601119   0.20981693 0.0022416337 0.0037775556           23     5.611784    826.45702    1.0454264 
    7900    0.5021561   -7.1419414   0.21027207 0.0022180596 0.0037367318           29    5.4766342    828.74751    1.0425371 
    8000   0.52547535   -7.0805417   0.20855287 0.0021724256 0.0036832842           26    6.0829556    825.72034    1.0463591 
    8100   0.51652011   -7.1610894   0.20846333 0.0021446844 0.0036231825           29    5.2383473    830.63217    1.0401716 
    8200   0.49695002   -7.1385273    0.2139259 0.0021740436 0.0035635565           18     5.926907    823.50481    1.0491742 
    8300   0.48356804   -7.1330272   0.22680643 0.0022771728 0.0035282385           33    5.7054669    826.57744    1.0452741 
    8400    0.5007252   -7.1332751   0.23136838 0.0022953211 0.0035107369           70    5.7524157    826.12467     1.045847 
    8500   0.48941478   -7.1451399    0.2329948 0.0022842627 0.0034924392           32    5.5412481     827.8722    1.0436393 
    8600    0.5102752   -7.1579878   0.23397641 0.0022672131 0.0034655332           23    5.3714163    829.38392    1.0417371 
    8700   0.49733191   -7.1200248   0.23048145 0.0022076766 0.0034308288           14    5.5472275    829.21823    1.0419453 
    8800   0.49442053   -7.1420231   0.22822039 0.0021611778  0.003386205           15     5.895643    823.62137    1.0490257 
    8900   0.49660592   -7.1399442   0.23238056 0.0021758478 0.0033377688           15    5.8985456    823.84676    1.0487387 
    9000   0.50014672   -7.1484099   0.24257458 0.0022460608 0.0033071695           44    5.1154213    832.41154    1.0379481 
    9100   0.49484307   -7.1196998   0.23892531 0.0021879606 0.0032752366           42    6.0970893    822.63333    1.0502857 
    9200   0.48938475   -7.1561735   0.24367284 0.0022071814 0.0032409987           39    5.4279444    828.45071    1.0429106 
    9300    0.5238605   -7.1144173   0.23980812 0.0021488182  0.003205562           36     5.968238    825.26757    1.0469332 
    9400   0.48047362    -7.138133   0.24110132  0.002137423 0.0031620629           38     5.660249    826.39114    1.0455098 
    9500   0.49350539   -7.1332059   0.24399418 0.0021402997 0.0031230818           17    5.7876056    825.20796    1.0470088 
    9600    0.5193317   -7.1275909   0.25031225 0.0021728493  0.003088329           30     5.766885     826.4156    1.0454788 
    9700   0.47233501    -7.136376    0.2546148 0.0021874122 0.0030612117           65    5.5740938    827.38545    1.0442533 
    9800   0.49443092   -7.1265364   0.24921131 0.0021191436 0.0030307076           26    5.7544378     826.0302    1.0459666 
    9900   0.52251694   -7.1473009   0.24027494 0.0020225162  0.002985742           36    5.7835151    824.92705    1.0473653 
   10000    0.4867366   -7.1512918   0.23866033  0.001988836 0.0029330858           59    5.6500646    826.04712    1.0459452 
   10100   0.48323521   -7.1014462   0.23659727 0.0019521226 0.0028800569           40    5.6864937    828.98521    1.0422381 
   10200   0.50860114   -7.1319041   0.23335549  0.001906499 0.0028227729           44      5.62641    827.54763    1.0440487 
   10300   0.48165688   -7.1374055   0.23860747 0.0019304811 0.0027694549           65    5.6683727    826.23308    1.0457098 
   10400   0.48284926   -7.1550993   0.23393483 0.0018744777 0.0027152703           55    5.4286836    828.39851    1.0429763 
   10500   0.51874722   -7.1334391   0.23701722 0.0018810889 0.0026624549           76    5.8629247    824.90915    1.0473881 
   10600   0.50939535   -7.1174388   0.24128975 0.0018969319 0.0026143304           50    5.7857203    826.25536    1.0456816 
   10700   0.49398367   -7.1630986   0.24896416 0.0019389731 0.0025747369           49    5.5806415    825.94851      1.04607 
   10800   0.49203742   -7.1509927    0.2544804 0.0019635833 0.0025411816           51    5.6428991    825.93145    1.0460917 
   10900   0.48422148   -7.1215951   0.25610354 0.0019579781 0.0025119844           39    5.6245344    828.15382    1.0432844 
   11000   0.47950555   -7.1468016    0.2526208 0.0019137939 0.0024797183           38    5.6945542     825.6261    1.0464785 
   11100   0.48975374   -7.1791852   0.25368604 0.0019045498 0.0024469764           45    5.7040368    823.55176    1.0491144 
   11200   0.50934381   -7.1530036   0.26283658 0.0019556293 0.0024193669           39    5.7724445    824.59503    1.0477871 
   11300   0.51498279   -7.1497658   0.25533937 0.0018830336 0.0023916344           33    5.8977029    823.75328    1.0488577 
   11400   0.50820897   -7.1226445    0.2542804 0.0018587747 0.0023593559           18    5.6419188    828.05619    1.0434075 
   11500   0.49591483   -7.1213965   0.26181864 0.0018972364 0.0023305968           27    5.9020976    825.11821    1.0471227 
   11600   0.50586136   -7.1361219   0.25811385 0.0018542661 0.0023040865           31      5.81664    825.30222    1.0468892 
   11700   0.49808768    -7.170679    0.2482369  0.001768069 0.0022695492           64     5.525117    826.09144    1.0458891 
   11800   0.49693457   -7.1778215   0.25037235 0.0017681662 0.0022328607           45    5.6842528    824.02867    1.0485072 
   11900   0.50188142   -7.1801254   0.25403352 0.0017789462 0.0021995555           49    5.2233719    829.15775    1.0420213 
   12000   0.48471312   -7.1330589   0.25258536 0.0017540649  0.002166854           39    6.1165207    821.64595    1.0515478 
   12100   0.48623685   -7.2001367   0.25212854 0.0017364224 0.0021345913           23    5.3087125    826.93379    1.0448237 
   12200   0.51419891   -7.1571412   0.24977305    0.0017061 0.0021010038           36    5.7640848    824.84607    1.0474682 
   12300   0.48701002   -7.1446914   0.24931575  0.001689131 0.0020671747           34     5.552779    827.78481    1.0437495 
   12400   0.48325194   -7.1622173   0.24240414   0.00162906 0.0020309779           42    5.6669709    825.20699      1.04701 
   12500   0.51589303   -7.1546309   0.24356074 0.0016237382 0.0019940212           31    5.7493052    824.91425    1.0473816 
   12600   0.50981801   -7.1906152   0.24211382 0.0016012818 0.0019584741           25    4.9923459    831.40872    1.0392001 
   12700    0.4778891   -7.1402077   0.23936595 0.0015706427 0.0019212033           38    6.0307095    822.16071    1.0508894 
   12800   0.50365618   -7.1596814   0.23850979  0.001552798 0.0018850471           47    5.4606471     827.3979    1.0442376 
   12900   0.50952114   -7.1488328   0.24163909  0.001560976 0.0018503582           93    5.8528045    823.90616    1.0486631 
   13000    0.4912477   -7.1767464   0.24455135 0.0015676368 0.0018187211           58    5.7424526    823.25889    1.0494876 
   13100   0.51514876   -7.1807813   0.24341289  0.001548428 0.0017879131           81    5.7177622    823.33939     1.049385 
   13200   0.50899026   -7.1446904   0.24127132 0.0015231775 0.0017575708           51    5.7664568    825.29353    1.0469002 
   13300   0.49555368   -7.1379921   0.23699614 0.0014849382 0.0017244342           89    5.5929742      827.132    1.0445733 
   13400   0.48105243   -7.1383665   0.23792902  0.001479658 0.0016923337           95    5.8018899    824.69351    1.0476619 
   13500   0.48266496    -7.161179   0.24767336 0.0015288479 0.0016640791           80    5.3354731    828.93495    1.0423013 
   13600   0.51146357   -7.1366993   0.25035609 0.0015340446 0.0016397934           39     6.044138    822.73063    1.0501615 
   13700   0.49915155   -7.1379996    0.2493781 0.0015168984 0.0016165328           53    5.7894293     825.1774    1.0470476 
   13800     0.495457   -7.1720562   0.25025071 0.0015111757 0.0015926896           59    5.4775781    826.66382    1.0451649 
   13900   0.52441163   -7.1813371   0.25451416 0.0015258642 0.0015718938           94    5.5543805    825.95423    1.0460628 
   14000   0.48945368   -7.1422578   0.25585684 0.0015229573 0.0015522775           49    5.6684601    826.18514    1.0457704 
   14100   0.47584575   -7.1619375   0.25677753 0.0015175977 0.0015327768           38    5.6805398    824.48641    1.0479251 
   14200   0.51522218   -7.1486748   0.25938749  0.001522227 0.0015150174           95    5.8330953    824.00054     1.048543 
   14300    0.5016354    -7.172725   0.26258591 0.0015302209 0.0014983444           85    5.4979007    826.62936    1.0452085 
   14400   0.50763316   -7.1705273   0.25936401 0.0015009491 0.0014826156           83    5.7581095    823.97671    1.0485733 
   14500   0.51496726   -7.1708045   0.25940697 0.0014908446 0.0014654545           95    5.5784059    826.18158    1.0457749 
   14600   0.49461358   -7.1600303   0.26448076 0.0015095933 0.0014498785           48    6.0391409    821.00441    1.0523695 
   14700   0.49374194   -7.1388676   0.26435676 0.0014986211  0.001435173          102    5.4595528    829.07482    1.0421255 
   14800   0.50585059   -7.1473385   0.26190383 0.0014746837 0.0014202754           56    5.7409138    825.34015    1.0468411 
   14900   0.48273803   -7.1712648   0.26074418 0.0014583007 0.0014046078           63    5.6180686    824.37812    1.0480627 
   15000   0.47635635   -7.1333567   0.26124263 0.0014513479 0.0013887849          104    5.8440448    824.47542    1.0479391 
   15100   0.49286865   -7.1379789   0.26564562 0.0014660354 0.0013741065           40    5.9386611    823.05235     1.049751 
   15200   0.50940507   -7.1503112   0.26524487 0.0014541933 0.0013608944           78    5.7036246    825.33818    1.0468436 
   15300   0.50576449   -7.1388471   0.26129494  0.001423175 0.0013465582           63    5.7300255     826.1245    1.0458472 
   15400   0.48480942   -7.1707973    0.2592759 0.0014030081 0.0013308905           99    5.4101861    827.34084    1.0443096 
   15500   0.50068077   -7.1282592   0.26257673 0.0014117028 0.0013163772          100    6.1439478    821.59472    1.0516134 
   15600   0.50523444   -7.1471623    0.2665563 0.0014239118 0.0013031047           59    5.3325674    830.02594    1.0409313 
   15700   0.51688392   -7.1710826   0.26988666 0.0014325194 0.0012910974           77    5.8947486    821.98118     1.051119 
   15800   0.48813136   -7.1651104   0.26674721 0.0014068945 0.0012792512           32    5.4426788    827.54646    1.0440501 
   15900   0.51519598    -7.134367   0.26760164 0.0014025243 0.0012667038           34    5.9077056    824.12491    1.0483848 
   16000   0.49072481   -7.1702686   0.27158365 0.0014144982 0.0012555644           29    5.2267463    829.61822    1.0414429 
   16100   0.49661899   -7.1253385   0.27613701 0.0014292805 0.0012460334           32    6.2615696    820.68542    1.0527785 
   16200    0.5013537   -7.1337396   0.27706351 0.0014252238 0.0012372269           53    5.4050676    829.89233    1.0410989 
   16300   0.50127307   -7.1150357   0.27557233 0.0014088564 0.0012279187           20    6.0402787    823.64718    1.0489928 
   16400   0.48120734   -7.1630617   0.27908043 0.0014180916 0.0012189791           68    5.5612573    826.41387     1.045481 
   16500   0.50022223    -7.153646   0.28239817 0.0014262533 0.0012113055           43    5.6440967    826.03249    1.0459637 
   16600   0.47763412   -7.1296983   0.28218747 0.0014166037 0.0012042603           67    5.6345628    827.35476    1.0442921 
   16700   0.47906071   -7.1675838   0.27596544  0.001377073 0.0011956735           30    5.6070479    825.07714    1.0471748 
   16800   0.49764146   -7.1660313   0.27721502 0.0013750745  0.001186253           33    5.4486519    827.58707    1.0439989 
   16900    0.4971425   -7.1280419   0.27966631 0.0013790252 0.0011776573           36    5.9923473    823.37991    1.0493333 
   17000   0.51199276    -7.156544   0.27755365 0.0013605571 0.0011688978           26    5.5961458    826.09149     1.045889 
   17100   0.49605147   -7.1587561   0.27125591 0.0013219099 0.0011591286           31    5.7461197    824.19094    1.0483008 
   17200   0.48433352   -7.1629743   0.27355574 0.0013253669 0.0011484546           45    5.7316628    823.97315    1.0485779 
   17300   0.49531459   -7.1552722   0.27869919 0.0013424816 0.0011393307           39    5.7333657    824.50466    1.0479019 
   17400   0.52627619   -7.1606975   0.27610109 0.0013223232 0.0011304601           24    5.7033953    824.99885    1.0472742 
   17500   0.50686836   -7.1689626    0.2791905 0.0013294785 0.0011220332           19    5.5330449    826.67668    1.0451486 
   17600   0.49007449   -7.1683888   0.27385243 0.0012966497 0.0011125536           42    5.3797734    828.21786    1.0432038 
   17700   0.49944132   -7.1567237   0.27322385 0.0012863646 0.0011027878           24    6.0527847    821.20628    1.0521108 
   17800   0.50367799   -7.1712761   0.28166612 0.0013186616 0.0010940383           25    5.3073638    828.59096     1.042734 
   17900   0.50140784   -7.1798549   0.28337836 0.0013192661 0.0010865977           56    5.7165655    823.36708    1.0493497 
   18000   0.49075853   -7.1574785    0.2785612 0.0012896352 0.0010787648           36    5.8277695    823.18389    1.0495832 
   18100   0.49202151   -7.1557168   0.27396114 0.0012613312 0.0010694191           30    5.4968883    827.24407    1.0444318 
   18200   0.51725369   -7.1337544   0.27296187 0.0012498254 0.0010599813           53    5.9872175    823.31434    1.0494169 
   18300   0.48138988   -7.1848583   0.27406251 0.0012480077 0.0010503807           46    5.3434377     826.9144    1.0448482 
   18400   0.52320944   -7.1482881   0.27544581   0.00124749 0.0010413186           44    6.2842629    819.26115    1.0546088 
   18500   0.48698939   -7.1596161   0.27597347 0.0012431237 0.0010323765           36    5.3407898    829.00124     1.042218 
   18600    0.4942461   -7.1725939   0.28171144  0.001262148 0.0010239128           59    5.6593527    824.05051    1.0484794 
   18700   0.48851189    -7.188086   0.28982427 0.0012915519 0.0010179179           63    5.6854156    822.80912    1.0500613 
   18800   0.50574801   -7.1687922   0.29691137 0.0013160965 0.0010133873           56    5.4953375    826.60901    1.0452342 
   18900   0.48987036   -7.1690328   0.29690927 0.0013091237 0.0010093488           47    5.8220853    822.56836    1.0503686 
   19000   0.47808518   -7.1988058   0.29828284  0.001308258 0.0010054201           28     5.524487    824.02117    1.0485168 
   19100   0.48702097   -7.1519978   0.30122206 0.0013142323 0.0010016975           45    5.9123398     822.7264    1.0501669 
   19200   0.50933808   -7.1622423   0.29613598 0.0012853124 0.00099799354           51    5.4174737     828.1904    1.0432384 
   19300   0.51225959   -7.1816696   0.28797255 0.0012434048 0.00099274025           54     5.776694    822.39296    1.0505927 
   19400   0.49185398   -7.1632319   0.28494578 0.0012239939 0.00098599184           41    6.0671341    820.23723    1.0533538 
   19500   0.48313951   -7.1719788   0.28498823 0.0012178984 0.00097881538           62    5.2159516    829.20197    1.0419657 
   19600   0.50239246   -7.1705908    0.2865423 0.0012182921 0.00097205028           72    6.0721104    819.77993    1.0539414 
   19700   0.49445815   -7.1750905   0.29158918 0.0012334567 0.0009660403           63      5.58081    825.34681    1.0468327 
   19800    0.5082575   -7.1703151   0.29294869  0.001232949 0.00096066592           66    5.5502141    825.87075    1.0461686 
   19900   0.49349789   -7.1728843   0.29308571 0.0012273271 0.00095558965           56    6.0171323    820.09686    1.0535341 
   20000   0.50196744   -7.1969173   0.29350149 0.0012229228 0.00095022663           39    5.3755303    826.18583    1.0457696 
   20100   0.52914707   -7.1448378   0.29319899 0.0012155845 0.00094485568           30    6.0818789    821.77852    1.0513782 
   20200   0.51962353   -7.1629475   0.29348773 0.0012107579 0.00093965078           52    5.3985441     828.6379     1.042675 
   20300   0.50972648   -7.1831555   0.30034502 0.0012329434 0.00093498956           52    5.8582697     821.5198    1.0517093 
   20400    0.5078602   -7.1850983   0.30106732 0.0012298502 0.00093110505           51    5.5082018    825.78756    1.0462739 
   20500   0.50664749   -7.1840855   0.29901451 0.0012155061 0.00092671232           53    5.3761896    827.49811    1.0441111 
   20600   0.49305548    -7.174134   0.30008818 0.0012139489 0.00092199542           26    5.7894533    822.78933    1.0500865 
   20700   0.49996318   -7.1436857   0.29780163 0.0011988793 0.00091767185           27    5.6770465    826.37731    1.0455272 
   20800   0.50237351   -7.1526233   0.30199681 0.0012099231 0.00091331908           36    5.4245823    828.65754    1.0426503 
   20900   0.49819615   -7.1845323   0.29994173 0.0011959399 0.00090914489           42    5.7259186    822.88132    1.0499692 
   21000   0.50143598   -7.1697214   0.29891163 0.0011861572 0.00090456692           44    5.4911642    826.57484    1.0452774 
   21100   0.49301475   -7.1428164   0.30577552 0.0012076442 0.0009005614           57    5.8359446    824.26293    1.0482092 
   21200   0.52746138   -7.1712961   0.31134144 0.0012238264 0.00089787155           43    5.4626671    827.06928    1.0446525 
   21300   0.51975249   -7.1817973   0.30701772 0.0012011647 0.0008944285           43      5.71705    823.63534    1.0490079 
   21400   0.50388581   -7.1923681    0.3127431  0.001217847 0.00089167587           59    5.4997322    825.09916    1.0471469 
   21500   0.50465681   -7.1255796   0.31611469 0.0012252507 0.00088918502           55    5.8918063    824.92655     1.047366 
   21600   0.49522058    -7.142817   0.32016619  0.001235209 0.00088766205           69    5.7324215    825.43575    1.0467199 
   21700   0.49148387   -7.1739408   0.31791239 0.0012208617 0.00088578425           43    5.5606358    825.89782    1.0461343 
   21800   0.49754963   -7.1806228   0.31742574 0.0012134011 0.00088354025           44    5.4539058    826.11684    1.0458569 
   21900   0.49444024   -7.1608344    0.3143634 0.0011962077 0.00088117275           17     6.170116    819.32524    1.0545263 
   22000   0.50123043   -7.1634457   0.32111632 0.0012163497 0.00087892088           47    5.3551514    828.69855    1.0425987 
   22100   0.49335509   -7.1147526   0.32062396 0.0012089893 0.0008771151           25    6.3600858    820.11138    1.0535154 
   22200   0.51479279   -7.1976673   0.31608662 0.0011865113 0.00087472932           41    5.6026911    823.80526    1.0487916 
   22300   0.49927664   -7.1528288   0.31385954 0.0011728682 0.00087188685           40    5.6369023    825.56798    1.0465522 
   22400   0.47735576   -7.1402446    0.3148198 0.0011712046 0.00086884479           45    5.6104351    826.94918    1.0448042 
   22500   0.48777176   -7.1700156   0.31545493 0.0011683516 0.00086577254           47    5.6093103    824.77315    1.0475608 
   22600    0.5025832   -7.1660701   0.31548303 0.0011632855 0.00086270772           47    5.7252003    824.10404    1.0484113 
   22700   0.51656661   -7.1475148   0.31708775 0.0011640519 0.00085995625           44    5.6019814    827.52128    1.0440819 
   22800   0.48644074   -7.1487924   0.31525527 0.0011522488 0.00085680623           43    5.5906087    826.63933    1.0451959 
   22900   0.48355448   -7.1763368   0.31587334 0.0011494663 0.00085376677           28    5.6463425    824.11318    1.0483997 
   23000   0.49662962   -7.1828935   0.31298715 0.0011340114 0.00085027139           22    5.6728854      823.741    1.0488734 
   23100   0.50735473   -7.1708866   0.31102921  0.001122039 0.00084672376           38    5.6080491    825.03907    1.0472231 
   23200   0.50080763   -7.1779945   0.31018955 0.0011141866 0.00084257059           39    5.8527637    821.82766    1.0513153 
   23300   0.51688562   -7.1980571    0.3193284 0.0011420901 0.00083925707           20    5.0386148    830.45365    1.0403952 
   23400   0.53275036   -7.1325529   0.32190902 0.0011463996 0.00083684243           25       5.9509    824.16622    1.0483322 
   23500   0.50961526    -7.185238   0.31457519 0.0011155148 0.00083371608           25    5.7030667    823.40165    1.0493056 
   23600   0.50094825   -7.2040366   0.32229417 0.0011380444 0.00083088176           64    5.5625775    823.73701    1.0488785 
   23700   0.50784291   -7.1587379   0.31937997 0.0011229956 0.00082829938           40    5.6535122    825.61403    1.0464938 
   23800   0.49672744   -7.1546325   0.32017329 0.0011210549 0.00082527782           26    5.7978356    823.90012    1.0486708 
   23900   0.50738763   -7.1909874   0.32259627 0.0011248126 0.00082261944           38    5.6884836    823.08123    1.0497141 
   24000   0.51150597   -7.1803744   0.31922773 0.0011084296 0.00081973448           22    5.7992444    822.34332    1.0506561 
   24100    0.4819585   -7.1839695   0.32745371 0.0011322742 0.00081702745           16    5.4141964    826.44315     1.045444 
   24200   0.50074198   -7.1422575    0.3360148 0.0011570757 0.00081540731           17    5.7411257    825.58139    1.0465352 
   24300   0.49338415   -7.1653981   0.33070674 0.0011341109 0.0008138653           21     5.715613    824.09826    1.0484187 
   24400   0.51025096   -7.1868166   0.32578531 0.0011126547 0.00081174364           21    5.8903282     820.6486    1.0528258 
   24500   0.51099931   -7.1874098   0.31895552 0.0010848827 0.00080860153           28     5.299618    827.62643    1.0439493 
   24600    0.5088741   -7.1296076   0.31947556 0.0010822343 0.00080523585           25    6.2198528    821.06598    1.0522906 
   24700   0.49700349   -7.1871642   0.32853314 0.0011084114 0.00080240952           31     5.496452    825.32122    1.0468651 
   24800   0.51391667   -7.1986182   0.33020395 0.0011095563 0.00080038526           23     5.846996    820.54693    1.0529562 
   24900   0.50264932   -7.1908495   0.33993609  0.001137671 0.0007988329           28    5.4895273    825.34639    1.0468332 
   25000   0.50243847   -7.1599406   0.34817168 0.0011605723 0.00079828755           45    5.7766896    824.03933    1.0484936 
   25100   0.49118785   -7.1805086   0.34694304 0.0011518693 0.0007978797           43    5.2644241    828.49421    1.0428558 
   25200   0.49514519   -7.1497038   0.34598987 0.0011441464 0.0007973091           29    5.9655714    822.41946    1.0505588 
   25300   0.50251471   -7.1947181    0.3397241 0.0011189858 0.00079636995           23    5.1774403    828.69249    1.0426063 
   25400   0.50249687   -7.1499071   0.33051091 0.0010843533 0.00079441776           31    6.1575603    820.61402    1.0528701 
   25500   0.50023793    -7.161817   0.33285739 0.0010877692 0.00079200289           28    5.5073185    827.20638    1.0444794 
   25600   0.50187307   -7.1582873   0.33384581 0.0010867376 0.00078971354           27    5.8421111    823.10219    1.0496874 
   25700   0.49572317   -7.1979615   0.33531177 0.0010872625 0.00078761607           23    5.4566663    825.17681    1.0470483 
   25800   0.48131167   -7.1644485   0.32785417 0.0010589605 0.00078506653           38    5.9050554    821.63725    1.0515589 
   25900   0.47649782   -7.2114517   0.32609215 0.0010492025 0.00078209262           21    5.1489654      827.666    1.0438994 
   26000   0.52020815   -7.1675014    0.3241214 0.0010388506 0.00077868001           27    5.8531038     822.4933    1.0504645 
   26100   0.48108054   -7.1446433   0.33502093 0.0010696709 0.00077596262           21    5.5179511    827.44697    1.0441757 
   26200   0.48567476   -7.1347786   0.33290046 0.0010588437 0.00077366116           21    5.8692609    824.25992     1.048213 
   26300   0.49267426   -7.1616909   0.33112496 0.0010491919 0.00077116278           25    5.7123034    824.15541     1.048346 
   26400   0.47100364   -7.1316329    0.3335216 0.0010527828 0.00076847127           25    6.0282854    822.28428    1.0507315 
   26500   0.49403749   -7.1547366   0.33529936 0.0010544005 0.00076607507           20    5.4829831    827.80978     1.043718 
   26600   0.51457301   -7.1508591   0.33102067 0.0010370322 0.00076339317           24    5.8747784    823.74958    1.0488624 
   26700    0.4969704   -7.2001214   0.33253469 0.0010378735 0.00076077899           20    5.3472373    826.17305    1.0457857 
   26800   0.51874812   -7.1451127   0.32359822 0.0010062133 0.00075760933           12    6.3004624    818.95851    1.0549985 
   26900   0.51517772     -7.18349   0.32309207 0.0010009048 0.00075396959           22    5.2581732    828.93306    1.0423037 
   27000   0.49293148   -7.1712663   0.32637942 0.0010073439 0.00075070422           10    5.9350306    820.98299     1.052397 
   27100   0.48660958   -7.1676566   0.32187146 0.00098976462 0.00074717352           15    5.2131903    830.00317    1.0409599 
   27200   0.50402753    -7.132435   0.32402412 0.00099272095 0.00074368611           18    5.9788148    823.19772    1.0495656 
   27300   0.47634665   -7.2046307   0.32296627 0.00098585552 0.00074008495           17    5.1212895    828.80836    1.0424605 
   27400   0.49768812   -7.1759949   0.33011057 0.0010039859 0.00073693437           30    6.0427942    820.07074    1.0535676 
   27500   0.50817032   -7.1795257   0.33297194 0.0010090059 0.00073424022           21    5.4399453    826.53451    1.0453284 
   27600   0.50148616   -7.1556415   0.33180953 0.0010018404 0.00073164323           20     6.160045    820.04289    1.0536034 
   27700   0.49114737   -7.2162162   0.33136793 0.00099689508 0.00072888549           27    5.1401797    827.60775    1.0439728 
   27800   0.49911581   -7.1597065   0.33785743 0.0010127621 0.00072638208           27    6.1669394    819.25693    1.0546142 
   27900   0.49792838   -7.1670423   0.34083099 0.0010180137 0.00072432938           35    5.3702385    828.69088    1.0426083 
   28000   0.48410309   -7.1525263   0.34269177  0.001019916 0.00072239285           29    5.9165912    822.39607    1.0505887 
   28100    0.5105377   -7.2112611   0.34353771 0.0010187951 0.00072067711           33    5.4858382    823.86793    1.0487118 
   28200    0.4972734   -7.1600294   0.33718586 0.00099641211 0.00071850113           28    5.8661471    822.49322    1.0504646 
   28300   0.50477183   -7.1464557   0.33988214 0.0010008308 0.00071630661           26    5.7683149    824.80487    1.0475205 
   28400   0.48679981   -7.1817506   0.33939134 0.0009958666 0.00071406404           37    5.8161011    821.79645    1.0513552 
   28500   0.50122818   -7.1700072   0.34257048 0.0010016681 0.00071198235           66    5.6617464    824.37932    1.0480612 
   28600   0.51968686   -7.1889301   0.34351982 0.0010009319 0.00071004471           56    5.6481622    823.81653    1.0487772 
   28700   0.48664771   -7.1815554   0.34451345 0.0010003294 0.00070823937           33    5.9368653    820.44951    1.0530813 
   28800   0.49993215   -7.2111223   0.35147127 0.0010169886 0.00070663577           76    5.2831135     826.3965     1.045503 
   28900   0.51548673   -7.1516525   0.35547925 0.0010250267 0.00070557549           49    6.0099749     821.8023    1.0513478 
   29000   0.49067853   -7.1795895   0.35374208 0.0010165002 0.00070447169           65    5.3139211    828.12417    1.0433218 
   29100   0.50231503   -7.1745669    0.3509435 0.0010049928 0.00070303803           72    5.7636876    823.46136    1.0492296 
   29200   0.49290354    -7.174869   0.35256513  0.001006179 0.00070165146           71    5.6611461    824.24868    1.0482273 
   29300   0.52353598   -7.2014687   0.36228352 0.0010303854 0.0007005033           72    5.5825171    823.83973    1.0487477 
   29400   0.50434998   -7.2001953   0.36633494 0.0010383643 0.00070013173           53    5.8269968    821.13102    1.0522072 
   29500    0.5274375   -7.2120405   0.35573225 0.0010048933 0.00069922575           47    5.3050322    826.85097    1.0449283 
   29600   0.49606809   -7.2003608   0.34823281 0.00098038515 0.00069760686           30     5.459034    825.08548    1.0471642 
   29700   0.50148332   -7.1862834   0.35298802 0.00099042653 0.00069580539           44    5.4460022    826.01604    1.0459845 
   29800   0.50796744   -7.1347557   0.35352517 0.00098860506 0.00069433255           47    5.9487416    823.37234     1.049343 
   29900   0.48651246   -7.2089769   0.35273718 0.00098310248 0.00069279553           51    5.3090369    826.10378    1.0458734 
   30000    0.4712547   -7.1397335   0.35420673 0.00098390757 0.00069123876           56    5.9899993    822.00733    1.0510855 
   30100    0.5136004   -7.1645118   0.35925653 0.00099461939 0.00068989349           48    5.6902577    824.67405    1.0476867 
   30200   0.48980169   -7.1628399   0.36238485 0.00099995818 0.00068881065           43     5.724113    824.47102    1.0479447 
   30300   0.51317579   -7.1407803   0.36805616 0.0010122556 0.0006880658           45    5.6220006    827.42333    1.0442055 
   30400   0.50132487   -7.1184022   0.37233856 0.0010206649 0.00068768168           73    5.8142804    826.61873    1.0452219 
   30500   0.49681935   -7.1823726   0.37475153 0.0010239113 0.00068732647           57    5.2664776    828.59243    1.0427322 
   30600   0.50858147   -7.1671625   0.36246143 0.00098709537 0.00068657391           54    5.8764419    822.42515    1.0505515 
   30700   0.49606091   -7.2132368     0.365597 0.0009923914 0.00068552804           43    5.3106136    826.00966    1.0459926 
   30800   0.51763656   -7.1578388   0.36681352 0.00099246082 0.00068451133           47    5.9196392    822.49665    1.0504602 
   30900   0.50272358   -7.1697526   0.37032296 0.00099871346 0.00068372482           49    5.2295548    829.90989    1.0410769 
   31000   0.50138736   -7.1676549   0.36778092 0.00098865837 0.00068291893           45    5.9425234    821.54046    1.0516828 
   31100   0.50795587   -7.1835763   0.36559315 0.00097961722 0.00068178984           55    5.4111084    826.59642    1.0452501 
   31200   0.51875142   -7.1377995   0.36412676 0.00097256078 0.00068066739           36    5.7311458    826.18847    1.0457662 
   31300   0.51796792   -7.2049773   0.36864831 0.00098149175 0.00067949302           36    5.4870223     824.5536    1.0478397 
   31400     0.497192   -7.1696303   0.37717309 0.0010009901 0.00067888884           49     5.814065    822.76116    1.0501225 
   31500   0.48990064   -7.1799227   0.38196827 0.0010104981 0.00067856824           52    5.3048277    827.99331    1.0434867 
   31600   0.51464176   -7.1760158    0.3870006 0.0010205712 0.00067853942           70    5.8675778    821.98259    1.0511171 
   31700   0.47967062   -7.2082799   0.39170653 0.0010297227 0.00067883462           81    5.5173049    823.46326    1.0492271 
   31800   0.49495386   -7.1949183   0.39160839 0.0010262274 0.00067919983           97    5.7187483    821.94154    1.0511697 
   31900   0.49953494   -7.1821091   0.39025158  0.001019466 0.0006794311           49    5.6543158    823.61416    1.0490349 
   32000   0.53939849   -7.1754254    0.3832772 0.00099811769 0.00067937487           44    5.5588964    826.12677    1.0458443 
   32100   0.49447272   -7.1703677   0.38337912 0.00099527289 0.00067899157          114    5.4549145    827.35645    1.0442899 
   32200   0.49313642   -7.1763896   0.38351517 0.00099253407 0.00067857035          121    5.7832526    822.68982    1.0502136 
   32300   0.48437222   -7.2007607   0.38087319 0.00098264496 0.00067803473           61    5.5705031    823.30856    1.0494243 
   32400   0.48950225   -7.1589669   0.38185144 0.00098212818 0.00067746112           61    5.7124062     824.3985    1.0480368 
   32500   0.50334591   -7.1780062   0.38377395 0.00098403574 0.00067682316           79     5.675364     824.2353    1.0482444 
   32600   0.51342115   -7.1676087   0.38146643 0.00097511866 0.00067629586           49    5.7671567    823.34091    1.0493831 
   32700    0.5195542    -7.177911   0.38695325 0.00098611939 0.00067572703           51    5.6909777    823.89392    1.0486787 
   32800   0.48312683   -7.1828555   0.39390677 0.0010007794 0.00067554164           58     5.749385    822.22146    1.0508118 
   32900   0.48676659   -7.1527105   0.39913616 0.0010109832 0.00067573124          119    5.6833312     825.0463     1.047214 
   33000   0.50990618   -7.1601371   0.40150778 0.0010139085 0.0006760693          137    5.6721818    824.94274    1.0473454 
   33100   0.49602401   -7.1913065   0.40351088 0.0010158884 0.00067641246          101    5.3900987    826.17489    1.0457834 
   33200   0.49021801   -7.1844344   0.39743933 0.00099758868 0.0006766668          155    5.8831091    820.83522    1.0525864 
   33300   0.50409721   -7.1892314   0.39937594 0.00099943927 0.00067659965          141    5.3574973    827.12238    1.0445854 
   33400   0.47645174   -7.1578421   0.39271773 0.00097983464 0.0006764298           70    5.9997326    821.17698    1.0521483 
   33500   0.47786687   -7.1898529   0.38711365 0.00096296928 0.00067582468           55    5.2791368    827.28573    1.0443792 
   33600   0.50553356   -7.1542711   0.37888632 0.0009396982 0.00067484746           55    5.9810848     821.9334    1.0511801 
   33700   0.51267245   -7.1724644   0.37821605 0.00093525234 0.00067367076           47    5.7283055     823.6179    1.0490301 
   33800   0.49932271   -7.1904048   0.37501715 0.00092459849 0.00067229458           51    5.6278568    823.50407    1.0491751 
   33900   0.48888499   -7.1860761   0.37616306 0.00092468793 0.00067077308           82    5.6007556    823.73877    1.0488762 
   34000    0.5157062   -7.1791271   0.37982515 0.00093094397 0.00066942646           81    5.5438503    825.61584    1.0464915 
   34100    0.4898076    -7.185134    0.3785834 0.00092517936 0.00066810545           48    5.5060174    825.49939    1.0466392 
   34200   0.47948918   -7.2053541   0.37746684 0.00091975348 0.00066673759           73    5.8519066    819.44761    1.0543688 
   34300   0.48770277   -7.1849692   0.38145223 0.00092675468 0.00066538101          109    5.6098244    823.82959    1.0487606 
   34400   0.49824595   -7.1496237   0.38407597 0.00093041659 0.00066425211          132    5.8251397    823.60762    1.0490432 
   34500   0.52085518   -7.1545858   0.38809227 0.00093742093 0.00066323408           62    5.6343638    825.98614    1.0460224 
   34600   0.49509341   -7.1656021   0.38939239 0.00093784292 0.00066239197           48     5.847725    822.17851    1.0508667 
   34700   0.48833791   -7.1886326   0.38772165 0.00093112787 0.00066142394           44    5.3673315    826.29447    1.0456321 
   34800   0.50017082   -7.1712239    0.3863792 0.00092523754 0.00066044378           55    6.2552408    817.35049    1.0570741 
   34900   0.49891234   -7.1769833    0.3869916 0.00092404869 0.00065941641           76    5.3025266    828.63766    1.0426753 
   35000   0.52062413   -7.1926816   0.37757956 0.00089899894 0.00065801601           93    5.4865662    825.44273     1.046711 
   35100   0.50973897   -7.1940718   0.38163318 0.00090606166 0.00065652482           90    5.7167262     822.3296    1.0506736 
   35200   0.50930045   -7.1490049   0.38745376 0.00091726742 0.00065527998          146    5.7700125    824.80913    1.0475151 
   35300   0.49087592   -7.1457868    0.3957074 0.00093415343 0.00065440057          131    5.8659608    823.59988    1.0490531 
   35400   0.48540822   -7.1929322   0.40213745 0.00094665123 0.00065383823          146    5.4748737    825.38454    1.0467848 
   35500   0.49344967   -7.1965203   0.40020106 0.00093943909 0.00065338457          157    5.8623544    820.17361    1.0534355 
   35600   0.51121838   -7.1973924   0.40342863 0.0009443554 0.00065292299          137    5.4039625    825.96096    1.0460543 
   35700   0.49004066    -7.178633   0.40243354 0.00093938734 0.00065246495          132    5.7394775    822.86639    1.0499882 
   35800   0.48549189   -7.2200169    0.4020185 0.00093579724 0.00065197039          169    5.4315949    823.67862    1.0489528 
   35900   0.50809329   -7.1835585   0.40741725 0.00094572247 0.00065159272          182     5.713598    823.27531    1.0494667 
   36000    0.4780992   -7.1568878   0.40588903 0.00093955792 0.00065127512          207    5.8242636    823.18562     1.049581 
   36100   0.48371658   -7.2025428   0.40168423 0.0009272489 0.00065071124          199     5.596334    822.97465    1.0498501 
   36200   0.50585766   -7.1995778   0.40192042 0.00092523115 0.00065013492          208    5.4634413    825.31077    1.0468784 
   36300    0.5046428   -7.1532211   0.39864378 0.00091516017 0.00064943971          199    5.9821284     822.0675    1.0510086 
   36400   0.48503545    -7.208615   0.39314519 0.00090005767 0.00064849276          200    5.3855261    825.10284    1.0471422 
   36500   0.50415237   -7.2036594   0.39212282 0.00089525756 0.00064733014          187    5.6870961     822.1832    1.0508607 
   36600   0.48911549   -7.1632542   0.39234828 0.00089332485 0.00064618456          180    5.9470507    821.51073    1.0517209 
   36700   0.50279705   -7.1783083   0.40260588 0.00091418227 0.00064523754          174    5.5104286    825.79644    1.0462627 
   36800   0.50643071    -7.188905   0.40283113 0.00091220815 0.00064458632          159     5.926763    820.49082    1.0530282 
   36900   0.49691491   -7.2242914   0.40413723 0.00091268569 0.00064385827          185    5.3391771    824.89406    1.0474072 
   37000   0.52446897   -7.1774902   0.40443279 0.00091088466 0.00064323684          168    5.9743693    820.52669    1.0529822 
   37100   0.48284897   -7.1706819   0.41122378 0.00092368322 0.00064270945          179    5.4311567    827.13164    1.0445738 
   37200   0.47813646   -7.1970748   0.40919786 0.00091666186 0.00064225246          201    5.6346273    822.99288    1.0498268 
   37300   0.48695428   -7.2092562   0.40346989 0.00090140725 0.00064157156          204    5.7617989    820.69547    1.0527657 
   37400   0.50218777    -7.177121   0.40858484 0.00091039401 0.00064087819          180     5.663938    824.13871    1.0483672 
   37500   0.49055082   -7.1913154   0.41771926  0.000928265 0.00064045966          171    5.7127593    822.42976    1.0505456 
   37600   0.50564915   -7.2128078   0.41965346 0.00093008301 0.00064024614          178     5.526726    823.39394    1.0493155 
   37700   0.53718434   -7.1806928   0.41886931 0.00092588264 0.00064014605          186    5.8541293    822.11228    1.0509513 
   37800   0.50163767   -7.1828087    0.4140373 0.00091278064 0.0006397693          198    5.7138423    822.94363    1.0498896 
   37900   0.49205568    -7.209662   0.41357553 0.0009093569 0.00063931531          220    5.5155901     823.8601    1.0487217 
   38000   0.50162038   -7.1977605   0.40890167 0.00089671418 0.00063868439          214    5.7814867    821.56119    1.0516563 
   38100   0.52635124   -7.1895685   0.41574805 0.00090933519 0.00063800028          216    5.4891787    825.30411    1.0468868 
   38200   0.49442313     -7.19123    0.4183525 0.00091263634 0.0006376151          229    5.7223423    822.79965    1.0500734 
   38300   0.49912502   -7.1868074   0.41708663 0.00090749919 0.00063720376          207    5.8436104    821.26529    1.0520352 
   38400   0.51873112   -7.1829996   0.41063313 0.00089113092 0.00063662093          191    5.5546649    825.37411     1.046798 
   38500   0.49348096    -7.205657   0.40684413 0.00088061498 0.00063579866          169    5.6811088    821.76068     1.051401 
   38600   0.49837235   -7.2197167   0.41397447 0.00089372726 0.00063500352          220    5.6311699    821.82301    1.0513213 
   38700   0.48493603   -7.2230177   0.42062488 0.00090573832 0.00063449427          222    5.6349338    821.27915    1.0520175 
   38800   0.49981817   -7.1845685   0.42888141 0.00092113705  0.000634299          198    5.5921965    824.23433    1.0482456 
   38900   0.51660108    -7.161052   0.42346177 0.00090715887 0.0006341213          189    5.9838042    821.52239     1.051706 
   39000    0.4705776   -7.1911139   0.42479522 0.00090768208 0.00063378652          206    5.2745087    827.24512    1.0444305 
   39100   0.48856967   -7.1750611   0.42622717 0.00090841254 0.00063342797          247    5.8256265    821.88601    1.0512407 
   39200   0.50737214   -7.1919021   0.43086048 0.00091594488 0.00063320608          259    5.7252022    822.54315    1.0504008 
   39300   0.48939988   -7.2341876   0.42711893 0.00090568051 0.00063304056          235    5.4107099    823.36905    1.0493472 
   39400   0.49933726   -7.2149723   0.42221996 0.0008930202 0.00063264139          249    5.8157571    819.91751    1.0537645 
   39500   0.50104855   -7.1956988   0.41390534 0.00087321801 0.00063190454          238    5.5225504    824.51938    1.0478832 
   39600   0.51677309   -7.1514305   0.41924228 0.00088224384 0.00063117381          230    6.0159968    821.69928    1.0514796 
   39700   0.47746983   -7.1694021   0.42277274 0.00088743227 0.00063059596          228    5.6677165    824.28778    1.0481776 
   39800   0.46932695   -7.1836947   0.43070946 0.00090182047 0.00063016177          212     5.812528    821.35659    1.0519183 
   39900   0.49557723   -7.1898174   0.43016066 0.00089841406 0.00062996196          196    5.4925252    824.80259    1.0475234 
   40000   0.51170523   -7.1971587    0.4240068 0.00088334749 0.00062952681          202    5.6650947    822.78564    1.0500913 
   40100   0.49520709   -7.1788604    0.4275652 0.00088853947 0.00062900033          226    5.8907681    821.07549    1.0522784 
   40200   0.51230761    -7.178422   0.42865547 0.00088858926 0.00062857473          226    5.3535795    827.47258    1.0441434 
   40300   0.49294796   -7.1582509   0.43427595 0.0008980065 0.00062822626          222    5.9220561     821.9627    1.0511426 
   40400   0.49519763   -7.2285532   0.42914775 0.00088520574 0.00062786755          212    5.1842374    826.19223    1.0457615 
   40500   0.49236827   -7.2153832   0.42781102 0.00088026957 0.00062736095          227    6.0962991    816.61279     1.058029 
   40600    0.4910488   -7.1823055   0.42327234 0.00086878558 0.00062671288          224    5.7616973    822.32572    1.0506786 
   40700    0.5108598    -7.190219   0.42578285 0.00087179124 0.00062601867          242    5.9023906    820.34913    1.0532101 
   40800   0.49194798   -7.2074624   0.42225097 0.00086244069 0.00062535708          245    5.5601564    823.13741    1.0496425 
   40900    0.4999266   -7.2171104   0.41646398 0.00084854111 0.00062444847          225     5.629232     821.7006    1.0514779 
   41000   0.51350985   -7.1913462   0.42374701 0.00086127441 0.00062357621          218    6.0511897      818.704    1.0553265 
   41100   0.51935186   -7.2008043    0.4275983 0.00086698762 0.0006229413          226    5.4373555    825.21988    1.0469937 
   41200   0.49349066   -7.1923257   0.42622819 0.00086211203 0.00062226113          237    6.1587357    817.46431    1.0569269 
   41300    0.4920179   -7.2181255    0.4293563 0.00086633635 0.0006215951          246    5.3156064    825.29034    1.0469043 
   41400   0.50561491   -7.1860343   0.42725636 0.00086001682 0.00062096019          254    5.6552785    823.11828    1.0496669 
   41500   0.48459925   -7.1781022   0.42688432 0.00085719742 0.00062024336          225    5.8887998    820.94927    1.0524402 
   41600   0.49635201   -7.1998003   0.42923573 0.00085984721 0.0006195983          242    5.7268489    821.48954     1.051748 
   41700   0.51624347   -7.2160367   0.43279561 0.00086489929 0.00061900142          214    5.5447308    822.99978     1.049818 
   41800   0.50657409   -7.1747872   0.43530965 0.00086784219 0.00061851412          227    5.6307072    824.37558     1.048066 
   41900   0.47401399   -7.2051301    0.4412809 0.00087764697 0.00061812734          257    5.5906735    822.59792    1.0503309 
   42000    0.5022278   -7.2156702   0.44374446 0.00088044534 0.00061792268          216    5.5668551    822.63965    1.0502776 
   42100   0.54969956   -7.2088878   0.43434366 0.00085974596 0.0006175277          225    5.9976499    818.59016    1.0554732 
   42200   0.50574503    -7.215216    0.4290199 0.00084719569 0.00061686131          217    5.4875715    823.51801    1.0491574 
   42300   0.48714055   -7.2474266    0.4307521 0.00084860539 0.00061606131          212     5.586567    820.25385    1.0533325 
   42400   0.46209324   -7.2038471   0.43788192 0.00086061698 0.00061547188          231    5.8118919    820.16803    1.0534427 
   42500    0.5089934   -7.2148321   0.43098403 0.00084506672 0.00061485372          239    5.6214557    822.30195    1.0507089 
   42600   0.50643589   -7.2172171   0.43167332 0.00084443137  0.000614098          250    5.6443158    821.72147    1.0514512 
   42700   0.53167596   -7.2133029   0.43839345 0.00085556878 0.00061345449          240    5.6819851    821.81102    1.0513366 
   42800   0.51051167    -7.233748   0.43958744 0.00085589454 0.00061299359          228    5.5944349    821.58781    1.0516222 
   42900   0.48867809    -7.204489   0.43614427 0.00084721108 0.00061245484          227    5.8639949    819.75601    1.0539721 
   43000   0.50102877   -7.2329564   0.43475632  0.000842551 0.00061175618          251    5.2564306    825.49112    1.0466497 
   43100   0.52509497   -7.1701139   0.44120604 0.00085306658 0.00061114204          250    5.9640817    821.63094     1.051567 
   43200    0.4950993   -7.2033561   0.45254029 0.0008729558 0.00061082964          292    5.6261669     822.6753    1.0502321 
   43300   0.50072315   -7.2078855   0.45426078 0.00087425091 0.00061066883          307    5.7698295    820.84551    1.0525732 
   43400   0.50515388   -7.1843999   0.45001029 0.00086407505 0.00061049158          299    5.7112327    822.79572    1.0500784 
   43500   0.50653822   -7.2245901   0.44752137 0.00085732063 0.00061015391          300    5.6359983    821.13078    1.0522075 
   43600   0.49014108   -7.2121139   0.44917887 0.00085852229 0.00060981064          274    5.7911071    820.06126    1.0535798 
   43700    0.4825799   -7.1939616    0.4479687 0.00085424999 0.00060944619          272    5.5385246    824.40478    1.0480289 
   43800   0.50804416   -7.1571945   0.44580253 0.00084817833 0.00060897147          270    5.8193149    823.45496    1.0492377 
   43900    0.5023978   -7.2024543   0.44236933 0.00083972917 0.00060841672          280    5.3704942    825.94525    1.0460742 
   44000    0.5080401   -7.1967291   0.44265346 0.00083835881 0.00060779329          264    6.1589012    817.34572    1.0570802 
   44100   0.48813101   -7.2322379   0.44539466 0.00084163766 0.00060725597          310    5.3110514    824.38131    1.0480587 
   44200   0.50285491   -7.2052901   0.44398154 0.00083706926 0.00060667936          304    5.9600089    818.98921     1.054959 
   44300   0.50449987   -7.2117431    0.4462223 0.00083939484 0.00060615361          313    5.5123871    823.32746    1.0494002 
   44400   0.48889689   -7.2341608   0.44345084 0.00083230261 0.00060555665          303    5.6770091    820.00392    1.0536535 
   44500   0.49732697   -7.2194039   0.44654889 0.00083623388 0.00060494979          303     5.528646    822.74244    1.0501464 
   44600   0.50119869   -7.2194903   0.45235183 0.00084520146 0.00060446769          267    5.7688235    820.00182    1.0536562 
   44700   0.49475802   -7.2823049   0.45165115 0.00084200438 0.00060412014          278    5.4457675    819.60991      1.05416 
   44800   0.50841373   -7.2208333   0.44871351 0.00083466053 0.00060368559          292    6.1095096    816.19979    1.0585644 
   44900   0.49269146   -7.2082382   0.44840482 0.00083222868 0.00060310033          276    5.4910627     823.9434    1.0486157 
   45000   0.52955383   -7.1941506   0.45059688 0.00083443865 0.00060261303          274    5.7080944        822.6    1.0503282 
   45100   0.50585503   -7.1996462   0.44949481 0.00083055211 0.00060212329          273    5.7401579     821.7011    1.0514772 
   45200   0.49551449   -7.2319265   0.44828173 0.0008264781 0.00060150051          272    5.3969705    823.41845    1.0492842 
   45300   0.54050213   -7.2296566   0.45386183 0.00083491875 0.00060097297          287    5.6075538     821.7963    1.0513554 
   45400   0.49592068    -7.220947   0.46398697 0.00085166477 0.00060068797          284    5.7410176    820.12991    1.0534916 
   45500   0.50799067    -7.203786   0.45998457 0.00084246257 0.00060048829          269    5.9342117    819.46506    1.0543464 
   45600   0.51831662   -7.1915839   0.45268028 0.00082726658 0.00060002509          278    5.5155519    825.07398    1.0471788 
   45700   0.50599188   -7.2162945   0.44770573 0.00081638535 0.00059947365          258    5.7105565    820.86638    1.0525465 
   45800   0.49338406   -7.2127201   0.43881026 0.0007984175 0.00059865334          279    5.9094364    818.91994    1.0550482 
   45900   0.50024007   -7.1969476   0.43962671 0.00079816033 0.00059770677          272     5.293486     827.1811    1.0445113 
   46000   0.48798807   -7.1675841   0.44196513 0.00080066145 0.00059682127          282    6.0483465    819.79038     1.053928 
   46100    0.4872527   -7.2144039   0.45236199 0.00081771871 0.00059610721          276    5.5697027    822.54308    1.0504009 
   46200   0.48612228   -7.2040665   0.45613457 0.00082275355 0.00059554047          278    5.8371346    819.91078    1.0537732 
   46300   0.50047258   -7.2126357    0.4559588 0.00082066018 0.00059504357          278    5.6341838    822.19661    1.0508435 
   46400   0.48954671   -7.2210022   0.45916359 0.00082464725 0.0005945911          285    5.5691893    822.60802     1.050318 
   46500   0.48528499   -7.2158196   0.45393377 0.00081350137 0.00059406626          286    5.9070356    818.94673    1.0550137 
   46600    0.5177339   -7.2235265   0.46137336 0.00082505965 0.00059357984          269    5.4984666    823.46242    1.0492282 
   46700    0.5113697   -7.2347676    0.4564462 0.00081450071 0.0005931217          260    5.8984518    817.63039    1.0567122 
   46800   0.47004062   -7.2195121   0.45194197 0.00080473996 0.00059251621          287    5.7805245    819.51459    1.0542826 
   46900   0.50130798   -7.2305494   0.44830128 0.00079655522 0.00059173112          258    5.4616157    822.66289    1.0502479 
   47000   0.53158605   -7.2346498   0.44553794 0.00078996088 0.00059090573          289    6.0339941    816.21387    1.0585461 
   47100   0.50021795   -7.2608603   0.44799487 0.00079263068 0.0005900976          294    5.2061713    823.95049    1.0486067 
   47200    0.5329965   -7.2162568   0.44581948 0.00078711065 0.00058926826          303    6.0175321    818.05459    1.0561642 
   47300   0.51092285   -7.2750699   0.44848411 0.00079014112 0.00058841136          291     5.450115     820.1394    1.0534794 
   47400   0.49433275   -7.2269583   0.45244969 0.00079544601 0.00058766061          288    5.8772713    818.24524    1.0559181 
   47500   0.49566467    -7.208065   0.46011226 0.00080721449 0.00058702892          311    5.3358489    825.81073    1.0462446 
   47600   0.49611437   -7.1953571    0.4633935 0.00081126313 0.00058655552          280    5.8193901     821.0133    1.0523581 
   47700   0.48542304   -7.2491342    0.4634784 0.00080971069 0.00058610211          291    5.4134089    822.05663    1.0510225 
   47800   0.49692897   -7.2000801   0.46659408 0.00081344853 0.00058571275          293    5.7175991    821.74322    1.0514233 
   47900    0.5020202   -7.1970979   0.46897594 0.00081589411 0.00058530883          286    5.6741917    822.44518    1.0505259 
   48000   0.48126126   -7.2025874   0.47606692 0.00082650507 0.00058507382          286    5.7497553    821.30051    1.0519901 
   48100   0.49419033   -7.2025874   0.47034816  0.000814879 0.00058485096          308    5.6408286    822.64646    1.0502689 
   48200   0.47899486    -7.211396   0.46237215 0.00079939859 0.00058432855          309    5.8461322    819.47262    1.0543366 
   48300    0.5121389   -7.2518703   0.46243509 0.00079785212 0.00058376016          323    5.6586592    819.80364    1.0539109 
   48400   0.53344163   -7.2234472     0.469431 0.00080824896 0.0005833071          321    5.6187855    822.15401     1.050898 
   48500   0.52172132   -7.2569629   0.46214944 0.0007940712 0.00058284664          321    5.3351399    822.98126    1.0498416 
   48600   0.50559412   -7.2137693   0.46516271 0.00079760408 0.00058228453          329    6.0339796    817.33476    1.0570944 
   48700   0.50393739   -7.2003157   0.47294065 0.00080927558 0.00058186471          298    5.7726912    821.44589    1.0518039 
   48800    0.5219718   -7.1916402   0.48150707 0.00082224568 0.0005816894          310    5.6379192    823.68992    1.0489384 
   48900   0.51662694   -7.2244779    0.4741741 0.00080806765 0.0005814268          346    5.7564885     820.0883    1.0535451 
   49000   0.49118403   -7.2312845   0.47224653 0.00080314036 0.00058106223          312    5.6176491     820.9106    1.0524898 
   49100   0.53189055   -7.2256764   0.47848216 0.00081208785 0.00058079294          296     5.615041    821.98038      1.05112 
   49200   0.51313885   -7.2139378   0.47549174 0.00080537218 0.00058047539          301    5.7561851    820.72509    1.0527277 
   49300    0.5041812   -7.2488179   0.47443418 0.00080195093 0.00058007256          307    5.3919538    822.74821     1.050139 
   49400   0.50675051   -7.2319682   0.46867355 0.00079060989 0.00057961289          292    5.7313077    819.87286    1.0538219 
   49500   0.49208397    -7.236971   0.47057924 0.00079222093 0.00057913418          315    5.4133551    822.99104    1.0498292 
   49600   0.48652616   -7.1901911   0.47452853 0.00079725895 0.00057868222          287    5.5821975    824.09522    1.0484225 
   49700   0.51276566   -7.2003286   0.46775486 0.00078429721 0.00057817906          266    5.7752987    821.26325    1.0520378 
   49800    0.5059491   -7.2608473   0.46929464 0.00078529892 0.0005775852          258    5.4387109    821.44815     1.051801 
   49900   0.51014212   -7.2434046   0.46514337 0.00077679253 0.00057693976          294    5.7363016    819.07213    1.0548522 
   50000   0.50449291   -7.2335375   0.46907684 0.00078179472 0.00057630396          296    5.5588371    822.04323    1.0510396 
   50100   0.49111838   -7.1748169   0.47199655 0.00078509072 0.00057576733          316      5.68867    823.54242    1.0491263 
   50200   0.50351604    -7.205373   0.47238725 0.00078417538 0.00057526831          331    5.4873477    824.20227    1.0482864 
   50300   0.50279075   -7.2012135   0.47385651 0.00078505054 0.00057474388          330    5.9184743    819.25047    1.0546225 
   50400   0.49162029   -7.2255918   0.46517003 0.00076913034 0.00057412097          310    5.5182971    822.57427    1.0503611 
   50500   0.47942561   -7.1991242   0.47181292 0.00077856917 0.0005734604          314    6.0191786    818.15968    1.0560286 
   50600   0.49966655   -7.2076011   0.47682137 0.00078527894 0.00057298739          292    5.3562839    825.68885     1.046399 
   50700   0.50941375   -7.2009318   0.47536683 0.00078133929 0.00057249444          280    5.7342437    821.90424    1.0512174 
   50800   0.50835826   -7.2530501   0.47141317 0.00077331556 0.00057195226          282    5.6192523    819.97339    1.0536927 
   50900   0.49664726   -7.2226351   0.47200219 0.00077276063 0.00057138079          304    5.9109953    818.35905    1.0557713 
   51000   0.50372175   -7.2103593   0.46884272 0.00076608287 0.0005707676          302    5.6344256    822.54088    1.0504037 
   51100   0.50810055   -7.2094078   0.46655675 0.00076085575 0.00057003951          294    5.6838997    821.84572    1.0512922 
   51200   0.50517041   -7.2622242   0.47046021 0.00076572299 0.0005693892          303    5.6816276    818.70806    1.0553212 
   51300   0.47757185   -7.2184463   0.46436844 0.00075433468 0.00056865926          294    5.7163858    820.43309    1.0531023 
   51400   0.50387877   -7.2294091   0.45892591 0.0007440433 0.00056780523          302    5.4421314    823.24112    1.0495103 
   51500   0.48964994   -7.2212128   0.46140846 0.00074661562 0.00056690291          307    5.6382696    821.38865    1.0518772 
   51600    0.5267788   -7.2211757   0.47248202 0.00076305234 0.00056617061          337     5.672864    821.29881    1.0519923 
   51700   0.47488227   -7.2006143   0.48382515   0.00077986 0.00056569193          337    5.7339629    820.79131    1.0526427 
   51800   0.49937791   -7.2271368   0.49005523 0.00078837713 0.00056538294          305    5.6053553      821.416    1.0518422 
   51900   0.51410165   -7.1872225   0.49700027 0.00079800942 0.00056519239          301    5.6579181    823.43549    1.0492625 
   52000   0.49807541   -7.2119337   0.49263044 0.00078947185 0.00056505351          323     5.765288    820.37176    1.0531811 
   52100   0.50022244   -7.2264811   0.49193223 0.00078683977 0.00056484257          321    5.8288652    819.12534    1.0547836 
   52200   0.51008732   -7.2225555   0.48887049 0.00078044459 0.00056454754          310    5.5946007    822.21754    1.0508168 
   52300   0.48474053   -7.1726668   0.49445689 0.00078785355 0.00056425785          305     6.190662    818.18901    1.0559907 
   52400   0.49537091   -7.2732319   0.49046017 0.0007799939 0.00056399877          317      5.21332    823.32628    1.0494017 
   52500   0.49855145   -7.2238265   0.48773526 0.00077418294 0.00056364306          300     5.648924    821.48475    1.0517542 
   52600   0.51675245   -7.1981335   0.48985052 0.00077606228 0.00056328963          286    5.9437189    819.42092    1.0544032 
   52700   0.50316323   -7.2503873   0.48684162 0.00076983178 0.00056286118          308    5.4103268    822.13314    1.0509247 
   52800   0.49952231    -7.200956   0.48395886 0.00076382395 0.00056242511          332    6.0347897      818.348    1.0557856 
   52900   0.51927313   -7.2270798   0.48888653 0.00077014261 0.00056197439          297    5.4777646    823.17884    1.0495897 
   53000   0.48848032    -7.213507   0.48818822 0.00076759154 0.00056157888          295    5.7716324    820.18614    1.0534194 
   53100   0.51796331   -7.2432213   0.48823205 0.00076621475 0.00056117158          308    5.5676841    821.20215    1.0521161 
   53200   0.49078671   -7.2445968   0.48583364 0.0007610176 0.00056072187          303    5.6669066    819.95862    1.0537117 
   53300    0.4855302   -7.1922374   0.48849325 0.00076374805 0.00056026858          305    6.0060863    818.84526    1.0551444 
   53400   0.51111848   -7.2180851   0.48607595 0.00075854549 0.00055983233          312    5.6061104    822.24503    1.0507817 
   53500   0.50419261   -7.2388233   0.48819633 0.00076043041 0.00055936186          322    5.7202738    819.46482    1.0543467 
   53600   0.49684469   -7.2610677    0.4851578 0.00075428761 0.00055886382          323    5.7029867    818.07613    1.0561364 
   53700    0.4939019   -7.2058745   0.49071589 0.0007615082 0.00055839137          310     5.728713    821.37708     1.051892 
   53800   0.52605313   -7.2335796   0.48920458 0.00075775182 0.00055798029          305    5.6437321    821.02164    1.0523474 
   53900   0.48855252   -7.2289643   0.48806361 0.00075458196 0.00055748474          304    5.7334825    819.79237    1.0539254 
   54000   0.50631355   -7.2314097   0.49322003 0.00076114201 0.00055703657          307    5.6258068    820.87206    1.0525392 
   54100   0.51331128   -7.1955934   0.49715782 0.0007658007 0.00055666521          282    5.9140169     820.1822    1.0534245 
   54200   0.48401999   -7.2026301   0.51038152 0.00078471943 0.00055646228          267    5.6724127    822.14992    1.0509032 
   54300   0.48934621   -7.2433346   0.50663618 0.00077752636 0.00055635029          306    5.4655605     822.0154    1.0510752 
   54400   0.51962344   -7.2090918   0.50043305 0.00076659475 0.00055614671          280    5.6657573    821.94948    1.0511595 
   54500   0.50736371   -7.2333218   0.49916176 0.00076324428 0.00055581976          300     5.641753    820.71355    1.0527425 
   54600   0.49967252   -7.2229486   0.49939498 0.00076220234 0.0005554716          288    5.8636445    818.89821    1.0550762 
   54700   0.50015105   -7.2202726   0.49947002 0.00076092324 0.00055514597          287    5.6741003    821.37453    1.0518953 
[...]
   89600   0.50003103   -7.2224402   0.61383522 0.00057090329 0.00042867294          325    5.6923017    820.93945    1.0524528 
   89700   0.48793069   -7.2260096   0.60911234 0.00056587917 0.00042839879          326    6.0709631    815.72376    1.0591821 
   89800   0.49202888   -7.2506357   0.60627249 0.00056261366 0.00042807506          319    5.5820484    820.33628    1.0532266 
   89900   0.51081099    -7.224209   0.61187935 0.00056718516 0.00042776106          336    5.7252141    820.39526    1.0531509 
   90000   0.48739464   -7.2259444   0.61169688  0.000566386 0.00042747507          320    5.9104995    818.00686    1.0562259 
   90100   0.53182627   -7.2342114   0.60936956 0.00056360485 0.00042717343          323    5.7273055    820.03148    1.0536181 
   90200   0.50315185   -7.2443607   0.60768596 0.00056142457 0.00042685103          323    5.4266542    822.32969    1.0506735 
   90300   0.48258011    -7.223512   0.59687563 0.00055082653 0.00042648217          325    6.0899578    815.98652     1.058841 
   90400   0.49941882    -7.233169   0.59717161 0.00055049005 0.00042609101          294    5.5645136    821.41148     1.051848 
   90500   0.52315045   -7.2059966   0.59904701 0.00055160866 0.00042569469          277    5.8236937    820.37386    1.0531784 
   90600   0.52337786   -7.2505507   0.60353232 0.00055512538 0.00042533828          276    5.5698416    820.72503    1.0527277 
   90700     0.499959   -7.2365841   0.60404387 0.00055498334 0.00042498087          313    5.9584221    816.64181    1.0579914 
   90800   0.48465508   -7.2491004    0.6105216 0.00056031718 0.00042465614          312     5.517328    820.85454    1.0525616 
   90900   0.49708902   -7.2153645   0.61278696 0.00056177756 0.00042434694          298    5.6093763    821.78757    1.0513666 
   91000   0.48901526   -7.2401657   0.61808521 0.0005660121 0.00042407555          313    5.7440823    818.94456    1.0550165 
   91100   0.50903335   -7.2616778   0.60136122 0.00055009259 0.00042374329          342    5.7634847    817.40297    1.0570062 
   91200    0.5006194   -7.2380648   0.60354407 0.00055148398 0.00042337852          320     5.714434    819.74976    1.0539802 
   91300   0.52496623   -7.2369082   0.59642532 0.00054438236 0.00042299751          313    5.4892438    822.56349    1.0503748 
   91400   0.49467924   -7.2609738   0.60926118 0.00055548977 0.00042262503          315    5.6118958    819.28085    1.0545834 
   91500   0.49687521   -7.2364675   0.61270292 0.00055801723 0.00042230177          308    5.7598152    819.16812    1.0547286 
   91600   0.51619696   -7.2215293   0.62068129 0.00056466638 0.00042203132          299    5.6144858    821.97291    1.0511295 
   91700   0.53521653   -7.2354289   0.61521942 0.00055908708 0.00042175278          308    5.2642764    825.41008    1.0467524 
   91800   0.49377085   -7.2051331   0.61772288 0.00056075061 0.00042147266          289    6.0731316    817.13735    1.0573498 
   91900   0.49925539   -7.2829733   0.62174617 0.00056378869 0.00042121275          294    5.2076255    822.82394    1.0500424 
   92000   0.52173439   -7.2359638   0.62043441 0.00056198769 0.00042096509          308    6.0769452    815.75328    1.0591438 
   92100    0.5128406   -7.2595842   0.61333351 0.0005549525 0.00042068214          302    5.3817942    822.04126    1.0510421 
   92200   0.48652144   -7.2452666   0.59678661 0.00053939498 0.00042032384          316    6.0122785    815.30654    1.0597241 
   92300   0.49739487   -7.2471877   0.59288162 0.00053528496 0.00041988435          305    5.5566213    820.61581    1.0528678 
   92400    0.5102198   -7.2422725   0.60212739 0.00054304418 0.00041946946          310    5.7072989    819.09414    1.0548238 
   92500   0.49208172   -7.2624763   0.61272229 0.00055200206 0.00041912164          332    5.3549542    821.98381    1.0511156 
   92600    0.5220084   -7.2408408   0.61463579 0.00055312796 0.00041882505          302    5.7219003    819.57732    1.0542019 
   92700   0.47778099    -7.241192    0.6083325 0.00054686488 0.00041849394          252    5.3793785     822.9015    1.0499434 
   92800   0.49029225   -7.2472526   0.61327218 0.00055071137 0.00041816519          297    5.5710187    820.37564    1.0531761 
   92900   0.45664809   -7.2105653    0.6109331 0.00054802036 0.00041784101          304    5.7359289    820.18987    1.0534146 
   93000   0.50783568   -7.2339251   0.60997504 0.00054657262 0.00041749046          302    5.6476803     820.5034    1.0530121 
   93100   0.51268523   -7.2307166   0.60969008 0.00054573047 0.00041716229          332    5.9958556    816.84029    1.0577343 
   93200   0.49040581   -7.2382094   0.61292908 0.00054804102 0.00041683721          337    5.7104475    819.34678    1.0544986 
   93300    0.5147826   -7.2608724    0.6102337 0.00054504617 0.00041652197          329    5.5706241    819.93845    1.0537376 
   93400   0.48039864   -7.2430775   0.60620706 0.00054086997 0.00041616011          314    5.8133732    817.88576    1.0563822 
   93500   0.48749682   -7.1939469    0.6137931 0.00054705267 0.00041581695          320    5.9871764    819.05864    1.0548695 
   93600   0.49873872   -7.2152401   0.61872001 0.0005508547 0.00041552621          329     5.315999    825.67834    1.0464123 
   93700   0.50041907   -7.2173201   0.61282327 0.00054502247 0.00041521018          319    5.7917556    819.85676    1.0538426 
   93800   0.50649366   -7.2384087   0.61609526 0.00054734831 0.00041489874          304    5.8596127    817.72245    1.0565932 
   93900   0.48183607   -7.2713825   0.61545668 0.00054619869 0.00041460303          274    5.4622098    819.97224    1.0536942 
   94000   0.49795019   -7.2685273   0.61065602 0.00054136172 0.0004142638          316     5.815141    816.09118    1.0587052 
   94100   0.51476585   -7.2512117   0.61224519 0.00054219375 0.00041392381          306    5.7669074    818.48126    1.0556137 
   94200   0.51385907   -7.2575002   0.62052144 0.0005489397 0.00041361938          310    5.5071479    820.69751     1.052763 
   94300   0.48416333   -7.2376977   0.62117693 0.00054893684 0.00041334783          317    5.8806005      817.182     1.057292 
   94400   0.51864677    -7.269477   0.61770239 0.00054528812 0.00041306395          299    5.3686262    821.56307    1.0516539 
   94500   0.51213207   -7.2099413   0.61465511 0.00054202391 0.00041275457          303    6.1185501    816.74693    1.0578552 
   94600   0.49085974   -7.2681064   0.61357908 0.00054050307 0.00041242211          324    5.3578873    821.60312    1.0516026 
   94700    0.5108749    -7.252892   0.61065909 0.0005373628 0.00041208616          333    5.9442637    815.94737    1.0588918 
   94800   0.50716954   -7.2821549   0.61319112 0.00053902173 0.00041174151          321    5.2400394    822.50732    1.0504466 
   94900   0.49233412   -7.2733937   0.61603072 0.00054094724 0.00041141626          319    5.5602427    818.79729    1.0552062 
   95000   0.50270777   -7.2252048   0.61562154 0.00054001889 0.00041109686          345     5.789106    819.68981    1.0540573 
   95100   0.51355143   -7.2269952     0.612704 0.00053689449 0.00041078618          316    5.7529714    820.00876    1.0536473 
   95200    0.4850079    -7.256196   0.60662045 0.00053100529 0.00041041704          329    5.5190856    820.54956    1.0529528 
   95300    0.4896905   -7.2476562   0.61268989 0.00053575541 0.0004100578          304    5.7213496    818.59175    1.0554712 
   95400    0.5127367   -7.2166378   0.61536214 0.00053752807 0.00040973088          300    5.9097882    818.28296    1.0558695 
   95500   0.50090613   -7.2289945   0.61885408 0.00054001228 0.00040943137          295    5.7539779    819.30826    1.0545481 
   95600    0.4794463   -7.2330904   0.62672493 0.00054630834 0.00040915021          299    5.8646302    817.75871    1.0565464 
   95700   0.50585111   -7.2553585   0.62310765 0.00054258764 0.00040888729          332    5.5244922    820.60006    1.0528881 
   95800   0.51636223   -7.2518135   0.61705324 0.00053675473 0.00040858276          325    5.6561244    819.37284     1.054465 
   95900   0.48564595   -7.2301192   0.61473037 0.00053417655 0.00040825335          306     5.772115    819.03458    1.0549005 
   96000   0.49318202   -7.2138477    0.6138353 0.00053284314 0.00040791559          305     5.696942    821.18484    1.0521383 
   96100   0.49188486   -7.2213877   0.60557153 0.00052512272 0.00040755117          311    5.6484118    821.15797    1.0521727 
   96200   0.49091831   -7.2597325   0.60587578 0.00052484041 0.00040715823          310    5.7015781    817.85779    1.0564184 
   96300   0.48333673    -7.241076   0.61588763 0.00053295918 0.00040679498          314    6.0052745    815.62743    1.0593072 
   96400   0.50635195   -7.2709888   0.62332852 0.00053883862 0.00040649519          298    5.2639627    822.78776    1.0500885 
   96500   0.51530822   -7.2302779   0.62585553 0.00054046246 0.00040622214          335    6.1261367    815.72612     1.059179 
   96600   0.49012295   -7.2639368   0.62340704 0.00053779075 0.0004059389          323    5.2314129    823.41501    1.0492886 
   96700   0.47779554   -7.2380221   0.62710583 0.00054042212 0.00040566857          333    6.2113055    813.58007    1.0619729 
   96800   0.50217711   -7.2581961   0.62404234 0.00053722653 0.00040539034          331    5.2496666    823.82299     1.048769 
   96900   0.51980257   -7.2517562   0.61669794 0.00053035598 0.00040508984          300     5.403636    822.40689    1.0505749 
   97000   0.50845092   -7.2472563   0.61339266 0.00052696964 0.00040473828          314    6.0618943    815.04345    1.0600662 
   97100   0.50176559   -7.2642719   0.61278601 0.00052590629 0.00040440322          326    5.5473762    819.75042    1.0539793 
   97200   0.52514696   -7.2498154    0.6092975 0.0005223744 0.00040402902          295    5.6622746    819.52823    1.0542651 
   97300   0.49896149   -7.2292651   0.61877824 0.00052995738 0.00040368838          300    5.8585932    818.30616    1.0558395 
   97400   0.50797178   -7.2496155   0.61366529 0.00052503875 0.00040335904          315    5.5553359    820.58867    1.0529027 
   97500   0.48234922   -7.2362059   0.61481301 0.00052548121 0.00040300724          324    5.9147215    817.19935    1.0572696 
   97600   0.49756703   -7.2631461    0.6194305 0.00052888533 0.00040267849          314    5.4574746    820.82556    1.0525988 
   97700     0.498463   -7.2063957   0.62947925 0.00053691508 0.00040238018          328    5.9835704    818.46782     1.055631 
   97800   0.47733333   -7.2423714   0.63048952 0.00053722693 0.0004021336          319    5.6603641    819.51012    1.0542884 
   97900   0.49530518   -7.2408678   0.62229592 0.00052970371 0.00040184224          325    5.7045665    819.35871    1.0544832 
   98000    0.4934397   -7.2251304   0.64342077 0.0005471265 0.0004015996          316    5.6948202    820.57981     1.052914 
   98100    0.5169497    -7.239451   0.63581179 0.00054010515 0.00040139934          301    5.5980821    821.07771    1.0522756 
   98200   0.49495077   -7.2508531   0.63406208 0.00053807033 0.00040115356          344    5.7579522      818.084    1.0561263 
   98300   0.50700934   -7.2272488    0.6329111 0.00053654722 0.00040090372          308    5.6397318    821.12641    1.0522131 
   98400   0.51293475   -7.2171191   0.63109673 0.00053446538 0.00040064175          341    5.9242552    818.45422    1.0556485 
   98500   0.48745273   -7.2412481    0.6362643 0.00053829466 0.00040039798          315    5.4204764    823.00777    1.0498078 
   98600   0.49113739    -7.225776   0.63691416 0.00053829797 0.00040017993          290    5.8887058    818.21281      1.05596 
   98700   0.50436876   -7.2424344   0.62371363 0.00052660725 0.00039990767          310    5.4799615     821.7332    1.0514362 
   98800   0.49359249   -7.2548945   0.62157739 0.00052427242 0.00039959075          340    5.6996037    818.55675    1.0555163 
   98900    0.4976479   -7.2517471   0.62367584 0.00052551048 0.00039927704          334    5.7220606    818.63035    1.0554214 
   99000   0.49825856   -7.2075087   0.62920115 0.0005296306 0.00039899771          301    5.8037357    820.44256    1.0530902 
   99100   0.49887578   -7.2095224   0.62290747 0.00052380379 0.0003986956          307    6.0365251     817.6752    1.0566543 
   99200   0.47515915   -7.2518811   0.62969218 0.00052897528 0.00039842229          308    5.6566027    818.86898    1.0551138 
   99300   0.50436913   -7.2604048   0.62831889 0.0005272901 0.00039813965          304    5.5608694    819.71234    1.0540283 
   99400   0.50294372   -7.2464112   0.62668505 0.00052538988 0.00039784901          350     5.682199    819.58083    1.0541974 
   99500   0.49561763   -7.2072296   0.61915968 0.0005185592 0.00039754086          311    5.8248992    820.06587    1.0535739 
   99600   0.49172008   -7.2343842   0.62320566 0.00052142374 0.00039720685          311    5.6048521    821.20508    1.0521123 
   99700   0.51030155   -7.2553191   0.62574385 0.00052302227 0.00039690691          335    5.6633643    819.15151    1.0547499 
   99800   0.49415427   -7.2785644   0.62073047 0.00051831201 0.00039659109          341    5.7835765    816.09421    1.0587013 
   99900   0.50568974   -7.2761717   0.62933751 0.0005249729 0.00039629898          326    5.4568774    820.05147    1.0535924 
  100000   0.51485754   -7.2079961   0.62728103 0.00052273419 0.00039600937          307    6.0273555    817.91395    1.0563458 
  100100    0.4885669   -7.2265474   0.63290172 0.00052689121 0.00039574287          315    5.3005735    824.76415    1.0475722 
  100200     0.481394   -7.2485516   0.62909009 0.00052319535 0.00039545474          346    5.7363334    818.44192    1.0556644 
  100300   0.51257838   -7.2695641   0.62609388 0.00052018434 0.00039516419          356    5.7026376    817.76882    1.0565333 
  100400    0.5306407   -7.2449467   0.62925696 0.00052229163 0.00039487855          324     5.530965    821.44431    1.0518059 
  100500   0.50818158   -7.2423934   0.63008473 0.00052245832 0.00039459446          353    5.8579203      817.856    1.0564207 
  100600   0.49602965   -7.2665056   0.63549519 0.0005264208 0.00039432046          329    5.1775948    823.60441    1.0490473 
  100700   0.48647167   -7.1917567   0.62054903 0.00051352948 0.00039403047          340    6.2202909    816.01392    1.0588055 
  100800   0.50446984   -7.2418412   0.61282283 0.00050663263 0.00039367402          350    5.3357522    823.63506    1.0490083 
  100900   0.49259951    -7.226831     0.622227 0.00051389742 0.00039332465          345    6.0440945    816.30209    1.0584317 
  101000   0.49936301    -7.233476   0.62408335 0.00051492025 0.00039301352          324    5.5641838    821.32733    1.0519557 
  101100     0.516939   -7.2167302   0.61436824 0.0005064031 0.00039266272          331    6.1485942     816.0497     1.058759 
  101200   0.50513321   -7.2845255   0.61964382 0.00051024688 0.00039230675          320    5.2276777    821.84893    1.0512881 
  101300   0.51045344   -7.2646533   0.61652335 0.00050717616 0.00039195774          339    5.7444888    817.60509    1.0567449 
  101400    0.5148057   -7.2275428   0.61467461 0.00050515665 0.00039158548          314    5.5897643    821.67194    1.0515145 
  101500    0.4830836   -7.2275625   0.62078967 0.00050967953 0.0003912258          332    5.4663644    822.57417    1.0503612 
  101600   0.49364423   -7.2222024   0.62365831 0.00051153076 0.00039090177          338    5.7166393    820.39466    1.0531517 
  101700   0.50734162   -7.2685797     0.615567 0.00050439774 0.00039055822          367    5.4968129     819.8566    1.0538428 
  101800   0.51227551   -7.2890183    0.6108242 0.00050001981 0.00039017363          359    5.5782155    817.79911    1.0564942 
  101900    0.5138989   -7.2292048    0.6100091 0.00049886253 0.00038978659          375    5.7432457    820.12676    1.0534957 
  102000   0.50395591   -7.2088201   0.61987201 0.00050643138 0.00038942345          359    5.9740475    818.11233    1.0560897 
  102100   0.47859368   -7.2603917   0.62378984 0.00050913307 0.00038909063          373    5.5446284    819.59851    1.0541747 
  102200   0.50468358   -7.2676443    0.6240198 0.0005088224 0.00038877175          372    5.7459754    817.25526    1.0571972 
  102300   0.50037679   -7.2228405    0.6273513 0.00051103885 0.0003884583          362    5.4790923    822.96549    1.0498618 
  102400   0.49262499   -7.2040381    0.6301333 0.00051280379 0.0003881583          354    5.8322438    819.95447     1.053717 
  102500   0.50409577   -7.2459249    0.6287534 0.00051118162 0.00038786234          365    5.9189563    816.59432    1.0580529 
  102600    0.4764352   -7.2864832   0.62575247 0.00050824599 0.00038755063          350    5.4568211    819.00471     1.054939 
  102700   0.49408641   -7.2285681   0.62347657 0.00050590439 0.00038722832          348     6.167588    814.59213    1.0606535 
  102800   0.49347568    -7.233051   0.63204631 0.0005123592 0.00038693171          345    5.4766228    822.39723    1.0505872 
  102900    0.4961568   -7.2390822   0.62799201 0.00050857791 0.00038663139          346    5.4575636    822.52704    1.0504214 
  103000   0.51984272   -7.2412054   0.62642483 0.0005068162 0.00038631604          346    5.7900396    818.41829    1.0556949 
  103100   0.47721343   -7.2594185   0.63277928 0.00051146078 0.00038602222          342    5.4136228    820.86535    1.0525478 
  103200   0.51565524    -7.242685   0.62602566 0.00050551167 0.00038571832          344    5.8555321    818.02248    1.0562057 
  103300   0.51242885   -7.2574801   0.62492235 0.00050413226 0.00038540765          366    5.5242003    820.21369     1.053384 
  103400    0.4922594    -7.239366    0.6270722 0.00050537734 0.00038507985          332    5.7393242    819.11594    1.0547957 
  103500   0.52161712   -7.2626703   0.63092681 0.00050799259 0.00038478172          346     5.470113    821.10473    1.0522409 
  103600   0.53415381      -7.2401   0.63612611 0.00051168445 0.00038450056          369    5.6503942    820.40013    1.0531446 
  103700   0.49477437   -7.2156445   0.63158982 0.00050754566 0.00038421255          357     6.069176    816.47495    1.0582076 
  103800   0.49348187   -7.2476227   0.62144124 0.00049890915 0.00038389182          352    5.5167715    820.65719    1.0528148 
  103900   0.52379548   -7.2210035   0.62525283 0.00050148606 0.00038355477          380     5.851044    819.11285    1.0547997 
  104000   0.49683558   -7.2212033   0.62192325 0.00049833594 0.00038322435          379    5.7070035    820.72958    1.0527219 
Loop time of 192.942 on 12 procs for 100000 steps with 864 atoms

Performance: 89560.686 tau/day, 518.291 timesteps/s
99.4% CPU use with 12 MPI tasks x no OpenMP threads

MPI task timing breakdown:
Section |  min time  |  avg time  |  max time  |%varavg| %total
---------------------------------------------------------------
Pair    | 9.9769     | 10.919     | 11.668     |  16.9 |  5.66
Neigh   | 0.85662    | 0.8962     | 0.93571    |   2.3 |  0.46
Comm    | 6.9486     | 7.8211     | 8.8061     |  21.8 |  4.05
Output  | 2.6862     | 2.6873     | 2.6947     |   0.1 |  1.39
Modify  | 168.09     | 168.53     | 168.81     |   1.7 | 87.35
Other   |            | 2.084      |            |       |  1.08

Nlocal:        72.0000 ave          75 max          66 min
Histogram: 1 0 0 0 0 4 3 1 0 3
Nghost:        1627.67 ave        1637 max        1621 min
Histogram: 3 0 1 3 0 2 0 2 0 1
Neighs:        8776.58 ave        9812 max        8042 min
Histogram: 3 0 2 1 2 1 0 1 0 2
FullNghs:      17554.2 ave       18371 max       16124 min
Histogram: 1 0 0 0 1 3 3 1 0 3

Total # of neighbors = 210651
Ave neighs/atom = 243.80903
Neighbor list builds = 3877
Dangerous builds = 0

#clear
#
#next RN
#
#jump SELF



Total wall time: 0:03:13
