
units lj                  # Use reduced LJ style units
atom_style atomic         # Uncharged point particles
atom_modify map hash      # Needed for indexing of clusters etc
                          # Used to be able to find where atoms are in relation to each other.

# Define a lattice with which to populate the simulation cell. With units
# set to 'lj' the second argument to the lattice command is the reduced
# density rho* and the spacings are multiples of that required to acheive
# that density. Also define a simulation cell called 'box' in lattice units
# and fill it with atoms. Here we're creating a box which is ten lattice
# constants in each direction.
lattice fcc 1.0 spacing 1 1 1                 # All equal sizes - gives the right reduced density.
Lattice spacing in x,y,z = 1.5874011 1.5874011 1.5874011

region box block 0 6 0 6 0 6 units lattice # Defines a region, "box", in lattice units
create_box 1 box                              # Creates a simulation box as specified above,
Created orthogonal box = (0.0000000 0.0000000 0.0000000) to (9.5244063 9.5244063 9.5244063)
  2 by 2 by 3 MPI processor grid
                                              # with one type of atom
create_atoms 1 box                            # Creates particles on lattice points
Created 864 atoms
  using lattice units in orthogonal box = (0.0000000 0.0000000 0.0000000) to (9.5244063 9.5244063 9.5244063)
  create_atoms CPU = 0.001 seconds


# Set the mass of the first (and only) atom type.
mass 1 1.0

# Lennard-Jones interactions between particles, 3.5 sigma cut-off. Apply
# long range tail corrections to energy and pressure and set all coefficients
# to unity since we work in reduced units here. Note that this doesn't shift
# the potential such that it goes to zero at the cutoff. That would require
# pair_modify('shift', 'yes').
pair_style lj/cut  3.5      # non-GPU version
pair_modify tail  yes
pair_coeff 1  1  1.0  1.0   # Intearaction between 1 and 1 set with epsilon = 1 and sigma = 1

write_data data.*
System init for write_data ...
Neighbor list info ...
  update every 1 steps, delay 10 steps, check yes
  max neighbors/atom: 2000, page size: 100000
  master list distance cutoff = 3.8
  ghost atom cutoff = 3.8
  binsize = 1.9, bins = 6 6 6
  1 neighbor lists, perpetual/occasional/extra = 1 0 0
  (1) pair lj/cut, perpetual
      attributes: half, newton on
      pair build: half/bin/atomonly/newton
      stencil: half/bin/3d
      bin: standard

#############################
#   M E L T   S Y S T E M   #
#############################

velocity all create 2.4 2750902 mom yes dist gaussian # Assign velocities
                                                    # Temperature 2.4, random number seed, zero linear momentum
						                                                        # Gaussian distribution

timestep 0.002   # simulation timestep
thermo 100       # output thermodynamic data every 100 steps

# Define a fix  in this case with index 1 applied to all
# particles in the simulation. This fix is for simulations
# in the anisotropic NPT ensemble. Note that we use the MTK
# correction.
fix 1 all npt temp 2.4 2.4 0.1 iso 5.68 5.68 0.5 mtk yes tchain 5 pchain 5 # Use NPT ensemble
                                                                         # Set temperature and pressure and damping
                                                                         # Numbers of thermostats in chain and in barostat
run 1000         # run for 10000 steps
Per MPI rank memory allocation (min/avg/max) = 3.633 | 3.633 | 3.634 Mbytes
Step Temp E_pair E_mol TotEng Press Volume 
       0          2.4   -8.3859253            0    -4.790092     -2.24275          864 
     100    1.3007594   -6.4407842            0   -4.4919034    5.3582762    891.69205 
     200    1.5828213   -6.0796178            0   -3.7081338    6.4338598    907.46239 
     300    1.7629056     -5.73851            0   -3.0972122    5.5953229    954.02439 
     400    1.8733232   -5.2785237            0   -2.4717912    6.0585808    994.36537 
     500      2.02574   -4.9360708            0   -1.9009777    5.7478153    1042.8978 
     600    2.2112838   -4.6895875            0   -1.3765009    5.7138268    1079.0368 
     700    2.3146746   -4.4629638            0  -0.99497044    5.6088298    1118.0222 
     800    2.4734008     -4.39503            0   -0.6892229    5.7937797    1123.7282 
     900    2.4206618   -4.2767239            0  -0.64993368    5.5531987    1146.9555 
    1000    2.3618098   -4.2459295            0  -0.70731524    5.7000582    1143.3852 
Loop time of 0.180883 on 12 procs for 1000 steps with 864 atoms

Performance: 955314.863 tau/day, 5528.442 timesteps/s
99.9% CPU use with 12 MPI tasks x no OpenMP threads

MPI task timing breakdown:
Section |  min time  |  avg time  |  max time  |%varavg| %total
---------------------------------------------------------------
Pair    | 0.070512   | 0.077145   | 0.082555   |   1.4 | 42.65
Neigh   | 0.012311   | 0.013079   | 0.014105   |   0.4 |  7.23
Comm    | 0.067118   | 0.073071   | 0.079746   |   1.6 | 40.40
Output  | 0.00018404 | 0.00019216 | 0.00024305 |   0.0 |  0.11
Modify  | 0.015562   | 0.015801   | 0.016169   |   0.1 |  8.74
Other   |            | 0.001595   |            |       |  0.88

Nlocal:        72.0000 ave          80 max          66 min
Histogram: 2 1 2 2 1 0 2 0 0 2
Nghost:        1314.75 ave        1327 max        1295 min
Histogram: 1 0 0 2 3 0 0 1 2 3
Neighs:        6211.67 ave        7136 max        5326 min
Histogram: 2 0 0 2 1 4 1 0 0 2

Total # of neighbors = 74540
Ave neighs/atom = 86.273148
Neighbor list builds = 80
Dangerous builds = 2

# Equilibrate just above the melting temperature to avoid step fn in T

fix 1 all npt temp 1.25 1.25 0.1 iso 5.68 5.68 0.5 mtk yes tchain 5 pchain 5
run 1000
Per MPI rank memory allocation (min/avg/max) = 3.634 | 3.634 | 3.634 Mbytes
Step Temp E_pair E_mol TotEng Press Volume 
    1000    2.3618098   -4.2459295            0  -0.70731524    5.7000582    1143.3852 
    1100    1.8617945   -4.5967525            0    -1.807293    5.9593679    1083.5566 
    1200      1.66126   -5.0091582            0   -2.5201524    5.9308167    1028.0056 
    1300    1.4533368   -5.3154554            0   -3.1379734    5.5185254    997.93023 
    1400    1.3100587   -5.5224566            0    -3.559643    5.2858775     978.0358 
    1500    1.3306301   -5.7450087            0   -3.7513736    5.2687861    956.68836 
    1600    1.2302857    -5.777427            0   -3.9341343     5.385203    950.58576 
    1700    1.2545134   -5.8251615            0   -3.9455694    5.6370291    940.07281 
    1800    1.2669685   -5.8434457            0   -3.9451925    6.1076728    931.13358 
    1900    1.2975362   -5.8185374            0   -3.8744858    5.5765884    942.23221 
    2000    1.2225624   -5.8503078            0   -4.0185867    5.1330896    948.19804 
Loop time of 0.162517 on 12 procs for 1000 steps with 864 atoms

Performance: 1063275.081 tau/day, 6153.212 timesteps/s
99.8% CPU use with 12 MPI tasks x no OpenMP threads

MPI task timing breakdown:
Section |  min time  |  avg time  |  max time  |%varavg| %total
---------------------------------------------------------------
Pair    | 0.069888   | 0.076912   | 0.089031   |   1.9 | 47.33
Neigh   | 0.0098205  | 0.010569   | 0.011814   |   0.5 |  6.50
Comm    | 0.045167   | 0.058471   | 0.065845   |   2.3 | 35.98
Output  | 0.00019471 | 0.00020034 | 0.00024498 |   0.0 |  0.12
Modify  | 0.014246   | 0.014542   | 0.014892   |   0.2 |  8.95
Other   |            | 0.001823   |            |       |  1.12

Nlocal:        72.0000 ave          79 max          65 min
Histogram: 1 1 0 4 0 1 1 3 0 1
Nghost:        1466.08 ave        1476 max        1447 min
Histogram: 1 1 0 0 2 0 0 4 1 3
Neighs:        7466.67 ave        8131 max        6694 min
Histogram: 1 0 2 0 3 1 3 0 0 2

Total # of neighbors = 89600
Ave neighs/atom = 103.70370
Neighbor list builds = 67
Dangerous builds = 0


# Small amount of linear quench

fix 1 all npt temp 1.25 ${temp} 0.1 iso 5.68 5.68 0.5 mtk yes tchain 5 pchain 5
fix 1 all npt temp 1.25 0.75 0.1 iso 5.68 5.68 0.5 mtk yes tchain 5 pchain 5
run 2000
Per MPI rank memory allocation (min/avg/max) = 3.634 | 3.634 | 3.634 Mbytes
Step Temp E_pair E_mol TotEng Press Volume 
    2000    1.2225624   -5.8503078            0   -4.0185867    5.1330896    948.19804 
    2100    1.2449914   -5.8657445            0   -4.0004188    5.4038025    941.16144 
    2200    1.2183326   -5.9134947            0    -4.088111    5.7747051    929.20457 
    2300    1.1730671   -5.9295201            0   -4.1719561    6.3097435    918.21372 
    2400    1.1682468   -5.9929005            0   -4.2425585    5.9152649    919.33801 
    2500    1.1061648    -6.003314            0   -4.3459872    5.8293963    917.84215 
    2600    1.0989083   -6.0562355            0   -4.4097808    5.5438092    918.38768 
    2700    1.0609978   -6.1029044            0   -4.5132498    5.5584328    914.25223 
    2800    1.0682492   -6.1798304            0   -4.5793112    5.4000704    910.83542 
    2900    1.0248236    -6.193959            0   -4.6585028    5.5605641    905.88628 
    3000    1.0145279   -6.2400192            0   -4.7199887     5.520135    902.38267 
    3100   0.97022563   -6.2643868            0   -4.8107328    5.6686939    897.60542 
    3200   0.95926819   -6.2575656            0   -4.8203287    6.1151042    891.06208 
    3300   0.94019732   -6.2994132            0   -4.8907496    6.2715176    885.67866 
    3400   0.91358804   -6.3457423            0   -4.9769463      5.78018    888.44882 
    3500   0.86007204   -6.3809179            0   -5.0923031     5.297826    892.10457 
    3600   0.86334212   -6.4528236            0   -5.1593093    5.3357729    886.24334 
    3700   0.82377889   -6.4962024            0   -5.2619643    5.4774538    880.33169 
    3800   0.84057355   -6.5733241            0   -5.3139231    5.7713988    869.98016 
    3900   0.82994549    -6.549285            0   -5.3058076    6.2652136    864.47628 
    4000   0.76437532   -6.5717107            0   -5.4264748    6.2095902    862.57499 
Loop time of 0.340927 on 12 procs for 2000 steps with 864 atoms

Performance: 1013707.995 tau/day, 5866.366 timesteps/s
99.8% CPU use with 12 MPI tasks x no OpenMP threads

MPI task timing breakdown:
Section |  min time  |  avg time  |  max time  |%varavg| %total
---------------------------------------------------------------
Pair    | 0.15335    | 0.16777    | 0.18867    |   2.3 | 49.21
Neigh   | 0.017111   | 0.018097   | 0.019316   |   0.5 |  5.31
Comm    | 0.098792   | 0.12064    | 0.13527    |   2.8 | 35.39
Output  | 0.00036894 | 0.00038244 | 0.0004765  |   0.0 |  0.11
Modify  | 0.028895   | 0.029635   | 0.030283   |   0.2 |  8.69
Other   |            | 0.0044     |            |       |  1.29

Nlocal:        72.0000 ave          77 max          62 min
Histogram: 1 0 0 0 3 0 0 1 5 2
Nghost:        1578.08 ave        1594 max        1563 min
Histogram: 1 1 1 4 0 0 1 2 0 2
Neighs:        8234.50 ave        9072 max        6922 min
Histogram: 1 0 0 2 1 1 3 0 1 3

Total # of neighbors = 98814
Ave neighs/atom = 114.36806
Neighbor list builds = 112
Dangerous builds = 0

#############################
# F R E E Z E  S Y S T E M  #
#############################

# Define solid atoms. This closely follows ten Wolde  Ruiz-Montero and Frenkel  Faraday Discuss  1996  104  93-110
# Compute components of the per-atom q6 vector
compute q6 all orientorder/atom degrees 1 6 components 6 nnn NULL cutoff 1.3 # compute the Q6 parameter.
                                                                             # Use all neighbours within 1.3 unit cell.

# get number of connections
compute coord_number all coord/atom orientorder q6 0.5

# An atom is solid if it has 8 or more connections (of a possible 14)
variable is_solid atom c_coord_number>=8
group solid dynamic all var is_solid    # Must be dynamic to update
dynamic group solid defined

# do clustering
compute cluster solid cluster/atom 1.3 # Create a cluster where all atoms within are solid and max 1.3 units from another member

# define chunks one chunk per cluster
compute clus_chunks solid chunk/atom c_cluster nchunk every compress yes  # Says which atoms are in which chunk

# count the size of each chunk
compute size_chunks solid property/chunk clus_chunks count


# Find the maximum entry in the vector of chunk sizes
variable max_n equal max(c_size_chunks)


# Thermo style which includes this variable
# thermo_style custom step temp pe vol v_max_n

thermo ${N}  # Print the thermo information every 100 steps
thermo 100  

# Reset the npt fix at a lower temperature (below freezing)

compute myRDF all rdf 100
fix 2 all ave/time 1 50 100 c_myRDF[*] file pcf.rdf mode vector


compute msd all msd com yes
variable twopoint equal c_msd[4]/6/(step*dt+1.0e-6)
fix 9 all vector 10 c_msd[4]
variable fit equal slope(f_9)/6/(10*dt)
thermo_style custom step temp pe c_msd[4] v_twopoint v_fit v_max_n press vol density


fix 1  all npt temp  ${temp} ${temp}  0.1  iso  5.68  5.68  0.5  mtk yes tchain  5  pchain  5
fix 1  all npt temp  0.75 ${temp}  0.1  iso  5.68  5.68  0.5  mtk yes tchain  5  pchain  5
fix 1  all npt temp  0.75 0.75  0.1  iso  5.68  5.68  0.5  mtk yes tchain  5  pchain  5

dump dmp2 all dcd ${N} traj.dcd
dump dmp2 all dcd 100 traj.dcd
dump dmp3 all dcd ${N} traj_unwrap.dcd
dump dmp3 all dcd 100 traj_unwrap.dcd
dump_modify dmp3 unwrap yes


# fix rnuntil all halt ${N} v_max_n >= 3980 error soft message no   # Stop when solidified

run 100000 # 5000000  # Run for this many steps
Neighbor list info ...
  update every 1 steps, delay 10 steps, check yes
  max neighbors/atom: 2000, page size: 100000
  master list distance cutoff = 3.8
  ghost atom cutoff = 3.8
  binsize = 1.9, bins = 6 6 6
  5 neighbor lists, perpetual/occasional/extra = 1 4 0
  (1) pair lj/cut, perpetual
      attributes: half, newton on
      pair build: half/bin/atomonly/newton
      stencil: half/bin/3d
      bin: standard
  (2) compute orientorder/atom, occasional
      attributes: full, newton on
      pair build: full/bin/atomonly
      stencil: full/bin/3d
      bin: standard
  (3) compute coord/atom, occasional
      attributes: full, newton on
      pair build: full/bin/atomonly
      stencil: full/bin/3d
      bin: standard
  (4) compute cluster/atom, occasional
      attributes: full, newton on
      pair build: full/bin/atomonly
      stencil: full/bin/3d
      bin: standard
  (5) compute rdf, occasional, copy from (1)
      attributes: half, newton on
      pair build: copy
      stencil: none
      bin: none
Per MPI rank memory allocation (min/avg/max) = 9.701 | 9.706 | 9.710 Mbytes
Step Temp PotEng c_msd[4] v_twopoint v_fit v_max_n Press Volume Density 
    4000   0.76437532   -6.5717107 2.7391004e-33 5.7064584e-35 8.3333333e+20            7    6.2095902    862.57499     1.001652 
    4100   0.74500987   -6.6591983  0.034739322 0.0007060837  0.031644014            7     5.668382    864.03963   0.99995414 
    4200   0.76097418   -6.7110792  0.056662412 0.0011242541  0.024565505           15    5.1342855    867.45744   0.99601429 
    4300   0.74478959   -6.6637144  0.072759335 0.0014100645  0.020601848            5    5.5323502    864.85986   0.99900578 
    4400   0.75720581   -6.6711855  0.086722374  0.001642469  0.017514064            6      5.74481    861.22645    1.0032205 
    4500   0.74281777   -6.6957522   0.10018719 0.0018553182   0.01588838            8    5.6562581    860.69976    1.0038344 
    4600   0.77068941   -6.7250564   0.11211046 0.0020309864  0.014544985            3    5.3974742    862.47502    1.0017681 
    4700   0.74515919   -6.7180216   0.12621339 0.0022378259  0.013713841            4    5.6071614    860.24384    1.0043664 
    4800   0.73183709   -6.6714875   0.13224373 0.0022958978  0.012934658            4    5.7264446    861.37045    1.0030527 
    4900   0.74528641   -6.6486006   0.13390026 0.0022772151    0.0119149            5    5.8254541    861.75849    1.0026011 
    5000   0.72409348   -6.6910928   0.13489101 0.0022481833  0.010767104           14    5.8887621    857.77344     1.007259 
    5100   0.75423943   -6.7121385   0.14002373 0.0022879692 0.0097846118            5    5.6853142    859.43531    1.0053113 
    5200   0.76832166   -6.6841724   0.15298475 0.0024516785 0.0091337084            5    5.4094631    865.76403   0.99796246 
    5300     0.762706   -6.6804859   0.16132884 0.0025366167 0.0087625088            6     5.926896    858.96574    1.0058608 
    5400   0.74807425   -6.7371106   0.16723387 0.0025807693  0.008442979            8    5.6635553    858.17707    1.0067852 
    5500   0.74064477   -6.6759068   0.16961197 0.0025698781 0.0080565982            5     5.696462    861.57893      1.00281 
    5600   0.76068059   -6.7325608    0.1813822 0.0026991397 0.0078011128            5    4.8100027     869.9859   0.99311954 
    5700   0.74039551   -6.7542687   0.18347226 0.0026823427 0.0075530075           13    5.2482278     861.7399    1.0026227 
    5800   0.72325182   -6.7156707   0.18646825 0.0026791413 0.0072989633           14    5.8712374    856.36328    1.0089176 
    5900    0.7492968   -6.6664483   0.19360835 0.0027345809 0.0070603811           19    6.1243121    856.50703    1.0087483 
    6000   0.79000192    -6.713795   0.21080339 0.0029278246 0.0069422194           32    5.5361567    861.95246    1.0023755 
    6100   0.75181243   -6.7343108   0.21841374  0.002983794 0.0069073179           21    5.7651841    856.29144    1.0090023 
    6200   0.77239599   -6.7618096   0.23381144 0.0031426266 0.0069091016            8    5.5505787    857.76137    1.0072732 
    6300   0.76236653   -6.7003427   0.24588185 0.0032524051 0.0069606721           18    5.6348185    861.67376    1.0026997 
    6400   0.72382628   -6.6549389    0.2442433 0.0031802511 0.0069668341            6    5.7608422       861.73    1.0026342 
    6500   0.73476812    -6.753189   0.25069561  0.003214046 0.0069214301           12    5.4414294    859.33748    1.0054257 
    6600   0.72608448   -6.7224783   0.26474147  0.003342695 0.0069033203           14    6.0151003    853.88363    1.0118475 
    6700   0.75978522   -6.6950924   0.28111274 0.0034964268 0.0069420064           13    5.9740475    856.95247    1.0082239 
    6800   0.78068427   -6.6254156   0.29202905 0.0035787871 0.0070107978           10    6.1630687    859.59288     1.005127 
    6900   0.75494342   -6.6640434   0.29777176 0.0035962771 0.0070553702            5     5.608528    863.75027    1.0002891 
    7000   0.72925693   -6.7406852    0.3119793  0.003714039 0.0070945745            3    4.9494052    866.95579   0.99659061 
    7100   0.74020046   -6.7485572   0.31687277 0.0037191637 0.0071313213            3    5.3467943    860.75103    1.0037746 
    7200   0.74723914   -6.7831628   0.32526342 0.0037646226 0.0071553066            3    5.6253192    854.91143     1.010631 
    7300   0.74724808   -6.7217056   0.34160958 0.0038996524 0.0071951186            4    6.0694471    853.67437    1.0120955 
    7400   0.78142532   -6.7286391   0.35181782 0.0039619121 0.0072496388            4    6.1033838    852.92592    1.0129836 
    7500   0.78413788   -6.7057658   0.36776584 0.0040862869 0.0073147461            4    6.0277808     855.9251    1.0094341 
    7600   0.75338709   -6.6173656    0.3704242 0.0040616686 0.0073686965            2    6.1718357    859.58241    1.0051392 
    7700   0.77184724   -6.7491441   0.37086604 0.0040137015 0.0073908663            6    5.4970987    859.19967     1.005587 
    7800   0.74379221   -6.7308935   0.36568221  0.003906861 0.0073624161           11    5.7249251    857.46145    1.0076255 
    7900    0.7653218   -6.7439569   0.36267701 0.0038257066  0.007302429            5    5.9855997    853.44204     1.012371 
    8000   0.75982505   -6.8205979   0.36985838 0.0038526912 0.0072287848            2    5.2966405    857.24542    1.0078794 
    8100   0.73628903   -6.6830131   0.38735534  0.003985137   0.00717401            4    5.7739459    859.49517    1.0052413 
    8200   0.76500976   -6.7252676   0.41097413 0.0041765661 0.0071646596            3    5.6424534    859.11141    1.0056903 
    8300   0.75894382   -6.7704669   0.42159464 0.0042328777 0.0071839413            5    5.4058712    859.17629    1.0056143 
    8400   0.75385568   -6.7104922   0.42822674 0.0042482809 0.0071935974            2    6.0345641    854.54834    1.0110604 
    8500   0.73924007    -6.719306   0.44484328 0.0043612084 0.0072125884            5    5.9479256    855.48593    1.0099523 
    8600   0.75463591   -6.7438898   0.45465311 0.0044055532 0.0072386136            5      5.26714    863.15924     1.000974 
    8700   0.73954377   -6.6945948   0.46185969 0.0044239431 0.0072559041            4    5.5885766    861.81449    1.0025359 
    8800   0.75208815   -6.7357412   0.47569448 0.0045046823 0.0072775938            3    5.8635861    855.48573    1.0099526 
    8900   0.71208706   -6.7248169   0.48831727 0.0045722588 0.0073068577           10    5.4248562    861.37804    1.0030439 
    9000   0.73048044   -6.6882945   0.49056414 0.0045422603 0.0073269573            2    5.4040048    864.64174    0.9992578 
    9100   0.72593264   -6.7091582   0.50152984 0.0045927639 0.0073433484            2    5.5626724    860.78647    1.0037332 
    9200   0.69921586   -6.7502972   0.49665033  0.004498644 0.0073479122            5    6.0160315    851.37598    1.0148278 
    9300   0.73373017    -6.744213   0.50350968 0.0045117352 0.0073383283            3    5.8449453    854.38628    1.0112522 
    9400   0.76823943   -6.7114221   0.51126786 0.0045325163 0.0073319798            2    6.0689519    854.77514    1.0107922 
    9500   0.77375231   -6.6985915   0.51908573 0.0045533834 0.0073209174            2    5.8450871    858.14086    1.0068277 
    9600   0.78925234   -6.7328391   0.52786048  0.004582122 0.0073108322            7    5.3474761    862.63874     1.001578 
    9700   0.74756532   -6.7223992   0.52953464 0.0045492664 0.0072952705           12    5.6069004     859.7183    1.0049803 
    9800   0.73907104   -6.7421313   0.53960328  0.004588463   0.00727595            4    5.7344645    856.51108    1.0087435 
    9900   0.73902056   -6.7988242   0.53316885  0.004487953 0.0072492019            6    5.3952947    856.73589    1.0084788 
   10000   0.79397437   -6.7762358   0.54246041 0.0045205032 0.0072152708            7    5.4768406    857.91581    1.0070918 
   10100   0.75682062   -6.6989282   0.54927511 0.0045319726 0.0071872016           16    6.2923292    852.28949    1.0137401 
   10200    0.7791029   -6.7688776   0.54891572 0.0044846053 0.0071529507            6    5.9483344    852.82453    1.0131041 
   10300   0.75045566   -6.7874649    0.5530433 0.0044744602 0.0071141954            9    5.7526486    853.06141    1.0128227 
   10400   0.74654538   -6.7151221   0.55591107 0.0044544154  0.007070316            6    6.0122741    854.43829    1.0111906 
   10500   0.76850168   -6.7325351   0.56190869 0.0044595926  0.007026573            7    5.5897376    859.19324    1.0055945 
   10600    0.7389378   -6.7564178    0.5743152 0.0045150564 0.0069859824            6    5.1464568    863.07377    1.0010732 
   10700   0.72855579   -6.7308521   0.58375565 0.0045463834  0.006954478            8    5.5976197    858.63419    1.0062492 
   10800   0.74411408   -6.7354377   0.58928953 0.0045469869  0.006922012           13    5.7762574    856.45102    1.0088143 
   10900   0.75569219   -6.7720324   0.59250492 0.0045298539 0.0068905079            9    5.9271502    851.17776    1.0150641 
   11000   0.77818813   -6.7528795   0.60448507 0.0045794322 0.0068617308            5     5.870148    854.12751    1.0115586 
   11100   0.76891372   -6.7453035   0.60117779 0.0045133466 0.0068317259           17    5.9927344    853.10798    1.0127675 
   11200    0.7549783   -6.8044314   0.59074493 0.0043954234 0.0067865927            4    5.2417359    858.24469    1.0067059 
   11300   0.74338465   -6.7210059   0.59880973 0.0044160007 0.0067358869           19    5.7423753    856.94967    1.0082272 
   11400   0.76957266   -6.7337742   0.60637284 0.0044325498 0.0066926465           20    5.6132002    858.97008    1.0058558 
   11500   0.72955514   -6.7711182   0.61694376 0.0044706067 0.0066520615           20    5.4332565    858.03546    1.0069514 
   11600   0.75750332   -6.8165959   0.62310536 0.0044763314 0.0066144784           35    5.2572396     857.3908    1.0077085 
   11700   0.72415201   -6.7903318   0.61452937 0.0043769896 0.0065698654           13    5.7430254    852.26215    1.0137726 
   11800   0.76511075    -6.744946   0.63373609 0.0044755372 0.0065282195           13     5.630576    856.60782    1.0086296 
   11900    0.7477428   -6.7339092   0.65096748 0.0045585956 0.0065020404           14    5.8755049    854.59078    1.0110102 
   12000   0.74427496   -6.7882928   0.65054896 0.0045177009 0.0064749171           25    5.6610353    853.35079    1.0124793 
   12100    0.7445669   -6.7347691   0.66163029 0.0045566823 0.0064486275           30    5.9379752    853.74732     1.012009 
   12200   0.74529134   -6.6763215   0.67695225 0.0046239906  0.006429647           18    6.0057824    857.26553    1.0078558 
   12300   0.72787456    -6.738996    0.6794004 0.0046029836 0.0064119777           15     5.376994    861.05944     1.003415 
   12400    0.7596675   -6.7840805   0.68559781  0.004607512 0.0063907359           10    5.6457809    854.67717     1.010908 
   12500   0.74050699   -6.7412883   0.69377521 0.0046251679 0.0063725795           10    6.0349139    852.45375    1.0135447 
   12600    0.7548082   -6.7172246   0.71662175 0.0047395617 0.0063610528           20    5.9357858    855.55879    1.0098663 
   12700   0.74957542   -6.7487427   0.71891112 0.0047172644 0.0063539483           15    5.2956328    861.98463    1.0023381 
   12800   0.74450716   -6.8215773   0.69882863 0.0045496654  0.006334579           44    4.9956148    861.10248    1.0033649 
   12900   0.72017005   -6.8157612   0.69932536 0.0045176055 0.0063026607           19    5.5742936    852.88456    1.0130328 
   13000   0.73818925   -6.7426046   0.71337363 0.0045729077 0.0062773121           21    5.7054215    856.61917    1.0086162 
   13100   0.77628568   -6.7470555   0.72243479  0.004595641 0.0062562111           14    5.5521866    858.62951    1.0062547 
   13200   0.77213625   -6.7315232   0.72258403 0.0045617677  0.006232854           15    5.7763203    856.70117    1.0085197 
   13300   0.73052428   -6.7335946   0.73310478 0.0045933882 0.0062115653           21    6.0808266    852.41095    1.0135956 
   13400   0.78031919   -6.7239229   0.74342989 0.0046233201 0.0061940936           35    5.9419047    855.30927    1.0101609 
   13500   0.75644477   -6.7499414   0.73752856 0.0045526452 0.0061722197           18    5.5193163    859.12246    1.0056773 
   13600   0.75927357   -6.8042106   0.73603054 0.0045099909 0.0061480534           35    5.2257902    858.92762    1.0059055 
   13700   0.73448307   -6.8131276   0.74464694 0.0045294824 0.0061210037           18     5.657098    851.98572    1.0141015 
   13800   0.76405068   -6.7656172   0.75786746 0.0045764941  0.006098138           23     5.899894    852.64398    1.0133186 
   13900   0.74655339   -6.7220846   0.76131985 0.0045642675 0.0060785439           31    5.9367707    855.21303    1.0102746 
   14000   0.71568048   -6.7522992   0.76608349 0.0045600206 0.0060572977           14    5.4633651    858.42956    1.0064891 
   14100   0.76465462   -6.7307735   0.76319283 0.0045105958 0.0060336169            5    5.9767056    853.57559    1.0122126 
   14200   0.76225933    -6.723747   0.77214733 0.0045313809 0.0060108982            9    5.8875401    855.66758    1.0097379 
   14300   0.71349253   -6.7607514   0.78247283 0.0045598648 0.0059902007            4     5.756561    854.45737    1.0111681 
   14400   0.74811535   -6.7884358   0.77865232 0.0045060896 0.0059669635            5    5.1943637    860.30825    1.0042912 
   14500   0.73990006   -6.7645485   0.78423213  0.004507081 0.0059424439           10    5.4200485    858.88582    1.0059544 
   14600   0.73544026   -6.7340638   0.78656502 0.0044895262 0.0059186601            7    6.0844922     852.2636    1.0137709 
   14700   0.76665164   -6.7576348   0.79458876 0.0045044713 0.0058966137            6    5.8761957     853.8443    1.0118941 
   14800   0.75679088   -6.6740971   0.80748874 0.0045466707 0.0058780938            6    6.1817314    855.20447    1.0102847 
   14900   0.78087593   -6.6878533   0.79859691 0.0044664255 0.0058572622            2    5.5843158    862.54221    1.0016901 
   15000   0.75923153   -6.7233101   0.80706627 0.0044837013 0.0058337272           14    5.1335118     866.2053   0.99745407 
   15100   0.71987091   -6.6987727   0.81187246 0.0044805322 0.0058122006            6    5.6692403    860.30374    1.0042965 
   15200   0.70934833   -6.7152676    0.7994381 0.0043828842 0.0057860767            7    5.8621571    855.74494    1.0096466 
   15300   0.71404417   -6.7489273   0.80484534 0.0043836891 0.0057574736            9    5.8819633    852.79549    1.0131386 
   15400   0.75192821   -6.7291605   0.81742313 0.0044232852 0.0057333445           11    5.6969248    858.51438    1.0063897 
   15500   0.76254762   -6.7265497   0.82085233 0.0044131844 0.0057087525           24    5.8437668    855.65661    1.0097509 
   15600    0.7481691   -6.7360163   0.82322455 0.0043975669 0.0056854354           11    5.9385655    854.32406    1.0113258 
   15700   0.74059277   -6.7493643   0.82071973 0.0043562617 0.0056601057           18    6.0204866    852.12538    1.0139353 
   15800   0.78194575   -6.7677802   0.82640033 0.0043586514  0.005633985           19    5.4800353    858.71721     1.006152 
   15900   0.75935187   -6.7563309   0.82382407 0.0043177361 0.0056072527           20     5.238831    862.30882    1.0019612 
   16000   0.74022502   -6.8191217   0.81302621 0.0042345114 0.0055766271           27     5.189044    858.53631     1.006364 
   16100   0.76304252    -6.754812   0.81253961 0.0042056914  0.005543905           24    5.6552427    856.98567    1.0081849 
   16200    0.7618603   -6.7303437   0.82829452 0.0042607742 0.0055135669           34    5.8863785    855.45151     1.009993 
   16300   0.78126861   -6.7232547   0.83179977 0.0042525549 0.0054858942           32    5.7960473    857.29699    1.0078188 
   16400   0.75207103   -6.7003911   0.82848597 0.0042097863 0.0054571861           21    5.8222908    858.79916    1.0060559 
   16500    0.7451913    -6.765369   0.83683273 0.0042264278  0.005428567           25    5.5791212    857.09507    1.0080562 
   16600   0.74797645   -6.7763119   0.85880839  0.004311287 0.0054034497           15     5.574587    856.00733    1.0093371 
   16700   0.78167219   -6.7257809   0.85608667 0.0042718894  0.005381162           20    5.8627451    855.85257    1.0095197 
   16800   0.77376692   -6.7421995   0.85103701 0.0042214136 0.0053573181           37    6.2742987     849.6898    1.0168417 
   16900   0.77228779   -6.7893717   0.86061572 0.0042436672 0.0053327681           36    5.8425116    852.10304    1.0139619 
   17000   0.77697562   -6.7890535   0.87123827 0.0042707757 0.0053105677           16    5.6840505    854.00198    1.0117073 
   17100    0.7470513   -6.7260778   0.86797021 0.0042298742 0.0052884398           12    5.7738885    856.76801     1.008441 
   17200   0.79055683   -6.7331417   0.87552126 0.0042418664 0.0052655147           12    5.5175205    860.12513     1.004505 
   17300   0.74818575   -6.7222178   0.89355807 0.0043042295 0.0052457836           31    5.7432531    857.03971    1.0081213 
   17400   0.72996589   -6.7487456   0.89634238 0.0042928274 0.0052267865           22      5.27418    861.93545    1.0023952 
   17500   0.76121702   -6.7236341   0.90418251 0.0043056309 0.0052089743           24    5.2879056    863.67012     1.000382 
   17600    0.7338177   -6.7163356    0.9218454 0.0043647982 0.0051936508           14    5.9591363    854.44979     1.011177 
   17700    0.7813321   -6.7603286   0.92968513 0.0043770485 0.0051812778           19    6.0864754    851.16136    1.0150837 
   17800   0.73709478   -6.8016342   0.94422514 0.0044205296 0.0051706864           12    5.6332712    853.57576    1.0122124 
   17900   0.73501989   -6.7561205   0.96586561 0.0044965809 0.0051639046           13    5.4457151    859.25596    1.0055211 
   18000   0.72539385    -6.707379   0.97033222 0.0044922787  0.005157927            6    5.5105159    861.72627    1.0026386 
   18100   0.75046499   -6.7141172   0.97401305 0.0044844062 0.0051528314           15    5.7084743    858.74653    1.0061176 
   18200   0.71810835   -6.7056286   0.99206413  0.004542418 0.0051477608           19    5.5017479    861.76033     1.002599 
   18300    0.7339369    -6.711463    1.0103493 0.0046008618 0.0051467533           18    5.5772513    860.92213    1.0035751 
   18400   0.72760857   -6.7737744     1.009532 0.0045721558 0.0051463401            9     5.768761    853.64231    1.0121335 
   18500   0.73650475   -6.7337543    1.0141599 0.0045682876 0.0051451643            8    6.0832018    852.24068    1.0137981 
   18600   0.76074389   -6.7043343    1.0337153 0.0046313407 0.0051461873            8    6.0999536    854.37865    1.0112612 
   18700   0.74126929   -6.7290806    1.0539828 0.0046968931 0.0051499986            7    5.8991851    855.32791    1.0101389 
   18800   0.73877237   -6.7818255    1.0684487 0.0047360314 0.0051560232           16    5.1313083    861.72877    1.0026357 
   18900    0.7267153   -6.7417643    1.0810622 0.0047665881 0.0051624272            9    5.1762738    864.01577   0.99998175 
   19000   0.75721144   -6.6922803      1.08505  0.004758991 0.0051695515           23        5.678    861.26432    1.0031764 
   19100   0.72626694   -6.7256851     1.088594 0.0047495375 0.0051757364           16    5.6120545    859.03613    1.0057784 
   19200   0.74991405   -6.7558408    1.0985041 0.0047678129 0.0051814846           18    5.4710266    859.11791    1.0056827 
   19300   0.73482351   -6.6716055    1.1053501 0.0047726687 0.0051881603           46    5.9231307    858.52136    1.0063815 
   19400   0.73785904   -6.6520361    1.1147007 0.0047882333 0.0051939453           14    5.8014537    862.02039    1.0022965 
   19500   0.73616387    -6.703254     1.145677 0.0048960556 0.0052042776           29    5.8086026    858.28731    1.0066559 
   19600   0.74461708   -6.7051548    1.1448415 0.0048675232 0.0052156368           13    5.9675072    856.15812    1.0091594 
   19700   0.77362546    -6.696086    1.1429185 0.0048346804 0.0052249534           20    5.9527609    857.02445    1.0081393 
   19800   0.74645855   -6.7131755    1.1665843 0.0049098663  0.005234423            9    5.7147125    858.68772    1.0061865 
   19900   0.71747472   -6.7256433    1.1800202 0.0049414582 0.0052462997           10    5.5685571    859.53591    1.0051936 
   20000    0.7701092   -6.7052625     1.185846 0.0049410248 0.0052581213            3    5.7780779    858.98244    1.0058413 
   20100   0.76697147   -6.7198829    1.1838384 0.0049081192   0.00526809           10    5.7830663    857.76623    1.0072674 
   20200   0.73556496   -6.7024348    1.1945655 0.0049280753 0.0052782903           14    5.8305179    857.55326    1.0075176 
   20300    0.7854948   -6.6885394    1.1995005 0.0049240577 0.0052875745           10    5.5644661    862.49281    1.0017475 
   20400   0.74700496   -6.7312628    1.2126391 0.0049535909 0.0052968449            6    5.3556414    861.44919    1.0029611 
   20500   0.75059586   -6.7499021    1.2139249 0.0049346539 0.0053064356            6    5.4841209     859.5941    1.0051256 
   20600   0.77580816   -6.6701016    1.2076065 0.0048851396 0.0053145844            9    6.0074149    857.76595    1.0072678 
   20700    0.7481933   -6.6874585    1.2072455 0.0048600863 0.0053204495            8    6.1153799    854.85514    1.0106976 
   20800    0.7433289   -6.7232155    1.2023964 0.0048172932 0.0053246342           14    5.5273054    860.28896    1.0043137 
   20900   0.72674802   -6.7588674    1.2068455 0.0048119837 0.0053260874            5    5.3501952     859.7502    1.0049431 
   21000    0.7354177   -6.7473484    1.1939859 0.0047380391 0.0053266331           11    5.7751622    854.84306    1.0107118 
   21100   0.74881838   -6.6960421    1.2124746 0.0047886042 0.0053263886            7    5.9912885    855.92952    1.0094289 
   21200   0.75380979    -6.715799    1.2395865 0.0048725883 0.0053299187            6    5.9214612    856.24899    1.0090523 
   21300   0.71793165   -6.7671192    1.2481989 0.0048834073 0.0053344182           10    5.3994864     858.9109    1.0059251 
   21400   0.73611849   -6.7307246    1.2569664 0.0048947287  0.005338708           12    5.3783465    861.47763     1.002928 
   21500   0.75764282    -6.694068    1.2410747  0.004810367 0.0053421642            5    6.0541582    855.75855    1.0096306 
   21600   0.75811835   -6.7805302    1.2357752 0.0047676511 0.0053419084            7    5.6802422    854.05151    1.0116486 
   21700   0.76343889   -6.7114878    1.2417762 0.0047687256 0.0053410047            8    5.9832734    855.22371     1.010262 
   21800   0.77925892   -6.7220052    1.2449136 0.0047588439 0.0053402907            6    5.8210357    856.59915    1.0086398 
   21900   0.77442397    -6.816399    1.2506197 0.0047588268 0.0053387788            7    5.1699164    859.37457    1.0053823 
   22000   0.74793961   -6.7644283    1.2440238 0.0047122111 0.0053363392            4    5.8365476    854.00608    1.0117024 
   22100   0.77155865   -6.6978974    1.2537976 0.0047277434 0.0053336767            7    6.1754467    854.11784      1.01157 
   22200   0.73967639   -6.7216302    1.2564331 0.0047163405 0.0053311885            9    5.9679775    854.68757    1.0108957 
   22300   0.69559288   -6.7792655    1.2621532 0.0047165663 0.0053278847           16    5.3689018    857.82671    1.0071964 
   22400   0.75069012   -6.7818581    1.2810973 0.0047659867 0.0053249839            8    5.2599819    860.52121    1.0040427 
   22500     0.724877   -6.7405812    1.2982703 0.0048084084 0.0053246525            3    5.4677178    859.15771    1.0056361 
   22600   0.74538344   -6.6896538    1.3087175 0.0048256542 0.0053246471           10    5.6111732    862.12523    1.0021746 
   22700   0.76578203   -6.7075234    1.3293148 0.0048800103 0.0053263336           12    5.6690058    859.91691    1.0047482 
   22800   0.76672635   -6.6862435    1.3381601 0.0048909359 0.0053297183            5    6.2459964    853.78369    1.0119659 
   22900   0.75939724   -6.7165316    1.3543891 0.0049286358 0.0053344093            5    5.7827921    857.92718    1.0070785 
   23000    0.7689777   -6.6786423    1.3538712 0.0049053303 0.0053382198            5    5.4400681     864.9111    0.9989466 
   23100   0.75251459   -6.7435368    1.3652306 0.0049250741 0.0053413875            5    5.5318754    859.08345     1.005723 
   23200    0.7153488   -6.7000093    1.3683647 0.0049151029 0.0053452624           11    5.8941949    857.12074     1.008026 
   23300   0.74338316   -6.6895287    1.3670505  0.004889308 0.0053485368            4    5.7929911    859.38304    1.0053724 
   23400   0.74056385   -6.7526523     1.347375 0.0047983438 0.0053482528           11    5.4866024    858.86972    1.0059733 
   23500   0.77791344   -6.7477315    1.3558896  0.004808119 0.0053473615           10    5.6833801    856.53755    1.0087123 
   23600   0.73869672   -6.7447501    1.3461218  0.004753255 0.0053456098            7    5.7497008     855.7209     1.009675 
   23700   0.70180926   -6.7501077    1.3642326 0.0047968795 0.0053437366           12    6.1908089    849.57159    1.0169832 
   23800   0.77742577   -6.7916982    1.3920209 0.0048740226 0.0053441505            7    5.4150263    857.56764    1.0075007 
   23900   0.75047715   -6.7243014    1.4042597  0.004896303 0.0053451282           11    5.4465597    861.54955    1.0028442 
   24000   0.73310774   -6.7501199    1.4138633 0.0049092475 0.0053465517            7    5.1093225    864.22403   0.99974078 
   24100   0.76005259   -6.7112158    1.3970515 0.0048307452 0.0053474243           19    6.2852223    851.24729    1.0149812 
   24200   0.76288822   -6.7608522    1.4034196 0.0048327122  0.005347632           11    6.1440023    849.68291    1.0168499 
   24300   0.72947389   -6.7726352    1.3985314 0.0047960608 0.0053463003           14    5.5982839    855.85282    1.0095194 
   24400   0.75854944   -6.7415153    1.3918217 0.0047534893 0.0053437134            8    5.6073577    858.60593    1.0062824 
   24500   0.73118532    -6.685475    1.4005766 0.0047638657 0.0053401184            7    5.8203088    858.83998    1.0060081 
   24600   0.74712636   -6.6920101    1.4158402 0.0047962064 0.0053375758           25     5.520526    862.45013    1.0017971 
   24700   0.72277631   -6.7609158    1.4196311 0.0047895786 0.0053354714           25    5.2998833    860.69292    1.0038423 
   24800    0.7431077   -6.7739057    1.4167366 0.0047605395 0.0053321845           13    5.3226529    859.59134    1.0051288 
   24900   0.76711727   -6.7272603    1.4205643 0.0047542313 0.0053287992            9    5.7151917    858.16825    1.0067956 
   25000   0.72610795   -6.6783576    1.4303804 0.0047679345 0.0053258559           17    5.9067662    857.76815    1.0072652 
   25100   0.72372962   -6.7739577    1.4430922 0.0047911426 0.0053231792           22    5.2575544    859.92011    1.0047445 
   25200   0.73154646   -6.7005517    1.4469193  0.004784786 0.0053208422           12    5.5281867    861.54688    1.0028473 
   25300   0.75255861   -6.7106032    1.4685002 0.0048369571 0.0053191632            7    5.8512727    856.92379    1.0082577 
   25400   0.72930798   -6.7376875    1.4550809 0.0047738872 0.0053177637            8    6.0188692    852.31732     1.013707 
   25500   0.69892292   -6.7845718    1.4487824 0.0047345828 0.0053138616           14    5.3613493    857.52013    1.0075565 
   25600   0.74980304   -6.7551245    1.4669408 0.0047751977 0.0053101368           34    5.4739149    859.18612    1.0056028 
   25700   0.76919846   -6.7318673    1.4785322 0.0047942027 0.0053080024           11    5.8514803    855.75684    1.0096326 
   25800   0.71324663   -6.7255453    1.4770697 0.0047708968 0.0053056822           10    5.9963056    853.60774    1.0121745 
   25900   0.76384699   -6.7320254       1.4864 0.0047824967 0.0053032808           19     5.708765    857.64113    1.0074144 
   26000   0.76696492   -6.7431861    1.4973816 0.0047992999 0.0053013363            2    5.6660868    857.48348    1.0075996 
   26100   0.72506165   -6.7439427    1.5023565  0.004796796  0.005300236            3     5.882346    854.08059    1.0116141 
   26200    0.7691044    -6.730961      1.51631  0.004822869 0.0052985942            2    5.9289816    854.99135    1.0105365 
   26300    0.7416816   -6.7497957    1.5365762 0.0048687459 0.0052979645            3    5.5156944    859.02162    1.0057954 
   26400   0.74536441   -6.8361152    1.5522098 0.0048996522 0.0052984801            2    4.6858663    863.53458     1.000539 
   26500   0.74313362   -6.7379071    1.5396951 0.0048418084 0.0052981844            6    5.5435203    858.63112    1.0062528 
   26600   0.72066774   -6.6536467    1.5489912 0.0048527293 0.0052975905            3    6.1832197    855.96489    1.0093872 
   26700   0.75001267   -6.7810868    1.5471418 0.0048287822 0.0052971766            2    5.9650878    850.65867    1.0156835 
   26800   0.70654789   -6.7477377    1.5508056 0.0048221567 0.0052954907            2    5.7948696    854.31345    1.0113384 
   26900   0.76558716   -6.8075965    1.5618937 0.0048385801 0.0052942189            4    5.0010423     862.6612    1.0015519 
   27000    0.7601382   -6.7917321    1.5771644 0.0048677911 0.0052931663            7    5.4227577    856.82465    1.0083743 
   27100   0.76051738   -6.7691413     1.567248 0.0048193356  0.005292848            4    5.9667415    851.56868    1.0145981 
   27200    0.7700485   -6.7306012     1.560354 0.0047804962 0.0052906343            8    5.9627759    854.58805    1.0110134 
   27300   0.75745693   -6.7518142    1.5628855 0.0047707127 0.0052884939            2    5.8251001    854.86883    1.0106814 
   27400   0.75349648    -6.810832    1.5597363 0.0047437234 0.0052849259            4    5.3589972    856.52387    1.0087285 
   27500   0.73864833   -6.7742432     1.578278 0.0047826606 0.0052817796           11    5.4622443    857.48634    1.0075962 
   27600   0.75973229   -6.7747211    1.5882726  0.004795509  0.005279341            7    5.3607674     859.5252    1.0052061 
   27700   0.74250202   -6.7868795    1.5898976 0.0047830852 0.0052768405           13    5.7539177    852.55888    1.0134197 
   27800   0.74138177   -6.7671858    1.6047028 0.0048102602 0.0052744632            9    5.8241532    853.00725    1.0128871 
   27900   0.75635359   -6.7582531    1.6161303 0.0048271513 0.0052733325           28    5.8521307    853.33718    1.0124954 
   28000   0.75425671   -6.7514355    1.6277881 0.0048446075 0.0052725498            7     5.938819    853.05895    1.0128257 
   28100   0.73953287   -6.7315319    1.6551829 0.0049086088 0.0052730341            9    5.9170901    853.93675    1.0117845 
   28200   0.75232547   -6.7396195    1.6680514 0.0049292299 0.0052742606           12    5.7124079    856.87599    1.0083139 
   28300   0.73947128   -6.7620661    1.6880027 0.0049705615 0.0052765802           14    5.4125592    859.11114    1.0056906 
   28400   0.73461557   -6.7599615    1.6937793 0.0049700097 0.0052789829           11    5.3947288    859.83536    1.0048435 
   28500   0.77587166   -6.7396753    1.6926351 0.0049492254 0.0052812559            7    5.7002428    857.46705    1.0076189 
   28600   0.74695504   -6.7457084    1.6820307 0.0049010218  0.005282646            4    6.3271785    848.36022    1.0184353 
   28700    0.7948308   -6.7745723    1.6885365 0.0049028354 0.0052833512            4    6.0184005    851.22528    1.0150074 
   28800   0.73314026   -6.7996826    1.7089007 0.0049447356  0.005284815            2    5.6027188    853.67497    1.0120948 
   28900   0.74674797   -6.8023913    1.7294682 0.0049869325 0.0052868779            4    5.6360872     853.3465    1.0124844 
   29000   0.75758025   -6.7353621    1.7243829 0.0049551232 0.0052889449            6    6.2412954     850.3164    1.0160924 
   29100   0.76390331   -6.7136401    1.7286365 0.0049502762 0.0052907887            4     6.060082     854.0683    1.0116287 
   29200   0.74613844   -6.6998768    1.7327037 0.0049449305 0.0052921229            6    5.7058578    859.66176    1.0050465 
   29300   0.76949768    -6.841292    1.7416912 0.0049536153 0.0052932815            4    5.1022436    857.70439    1.0073401 
   29400   0.75447115   -6.8056035    1.7616581 0.0049933617 0.0052950925            4    5.5630849    854.15151    1.0115301 
   29500   0.77112369   -6.7421959    1.7792626 0.0050261653 0.0052981259            4    5.5326894    859.39212    1.0053618 
   29600   0.74361517   -6.7202505    1.7642712 0.0049669796 0.0053005987            6    5.9777342    854.69296    1.0108893 
   29700   0.73957467   -6.7552926    1.7735506 0.0049762923  0.005302214            3    5.6021683    856.48385    1.0087756 
   29800   0.74983988   -6.7383744    1.7894156 0.0050039585 0.0053039062            4    5.1014736    864.94984   0.99890186 
   29900   0.80119168   -6.6832386    1.7701093  0.004933415 0.0053052911            4     5.964789     858.1961    1.0067629 
   30000   0.76829148   -6.7155161    1.7500316 0.0048611988 0.0053047184            3     6.257836    851.50225    1.0146773 
   30100   0.75296681   -6.7732518    1.7620693 0.0048783755 0.0053037474            7    5.6785489     854.9296    1.0106095 
   30200   0.71359379   -6.7647544    1.7633147 0.0048656585  0.005302551            7     5.517287    857.17631    1.0079607 
   30300   0.75698993   -6.7812788    1.7789143 0.0048925034 0.0053009204            5    5.0855273    862.78454    1.0014088 
   30400   0.77671261   -6.6993512    1.7923032 0.0049131119  0.005300644            5     5.774061    859.57943    1.0051427 
   30500   0.76446685   -6.7212673    1.7937188  0.004900871 0.0053006205            6    5.9551416    855.22441    1.0102612 
   30600   0.77528148    -6.752113    1.7941708 0.0048860859 0.0053002139            9    5.8471457    854.63709    1.0109554 
   30700   0.78821915   -6.7905604    1.7997167 0.0048852245 0.0052992774           13    5.4964542    856.49728    1.0087598 
   30800   0.75701202   -6.7334207    1.7867871 0.0048343805 0.0052979839           20     5.817537    856.08045    1.0092509 
   30900   0.72083451   -6.7354766    1.8097558 0.0048806791 0.0052962716           10    5.5896322    858.67702     1.006199 
   31000   0.76413046   -6.8002628    1.8094709 0.0048641691 0.0052946926            9    5.4367596    857.63575    1.0074207 
   31100   0.77826489   -6.7244398    1.8120044 0.0048553172 0.0052929993            6    5.8176921    857.10352    1.0080463 
   31200   0.74068425   -6.7532266     1.839394 0.0049129112  0.005292203            8    5.7772931    854.85019    1.0107034 
   31300   0.74374204   -6.7948167    1.8437076 0.0049086995 0.0052916345            3    5.6375841    853.44183    1.0123713 
   31400   0.75709143   -6.7470081     1.851882  0.004914761 0.0052914538            8    5.9854392    852.99024    1.0129072 
   31500   0.75355551    -6.752012    1.8482341 0.0048895081 0.0052909909            6    5.7431346    855.25339    1.0102269 
   31600   0.71789665   -6.7777744    1.8627701 0.0049123683  0.005290022           10    5.6297797    853.93927    1.0117816 
   31700   0.74168381    -6.766473    1.8610301 0.0048922977 0.0052896788            5    5.6006935    856.53299    1.0087177 
   31800   0.79937988   -6.7758159    1.8603677 0.0048751773 0.0052884209           10    5.5152385    857.43621    1.0076551 
   31900   0.80105312   -6.7256255    1.8480593 0.0048277411 0.0052870507            5    6.0488572    854.28324    1.0113742 
   32000   0.76738766   -6.7165634    1.8499715 0.0048176339 0.0052847215           12    6.1812905    852.50304    1.0134861 
   32100   0.75336712   -6.7657361    1.8419061 0.0047816877 0.0052820782            8    5.7547296    853.88552    1.0118452 
   32200    0.7697064   -6.7752698    1.8500806 0.0047879932 0.0052782913            5    5.4276377    858.24902    1.0067008 
   32300   0.76882786   -6.7412768    1.8593889 0.0047971849 0.0052746934            3    5.1234235     864.7463   0.99913697 
   32400   0.75562304   -6.7527961    1.8531948 0.0047664474 0.0052709873            4    5.4737227    859.06348    1.0057464 
   32500   0.74813838   -6.7412835    1.8375443  0.004711652 0.0052666082            6     5.833161    854.76011    1.0108099 
   32600   0.73759615   -6.7156786    1.8351272 0.0046910203 0.0052612781            9     6.044992    853.58264    1.0122043 
   32700   0.76633146    -6.798005    1.8463579 0.0047052954 0.0052561911           14    5.5423896    855.28084    1.0101945 
   32800    0.7609894    -6.734388     1.841321 0.0046781529 0.0052507445            7    6.2522292    850.04328    1.0164188 
   32900    0.8021678   -6.7388145     1.861362  0.004714696 0.0052460167           12      5.76719     856.6792    1.0085456 
   33000   0.77275271   -6.7421989     1.871162 0.0047251566 0.0052416992           29    5.8007848    855.80084    1.0095807 
   33100   0.74430118    -6.742699     1.879199 0.0047311152 0.0052374473           35    5.9365123     853.1645    1.0127004 
   33200   0.77248863   -6.7247581    1.8982234  0.004764617 0.0052337098            8    5.9379763    854.77703    1.0107899 
   33300   0.75853476   -6.7251692    1.9201816 0.0048052591 0.0052311315           12    5.8194689    856.12022    1.0092041 
   33400   0.73504544   -6.7323272    1.9363745 0.0048312737 0.0052289665           13    5.6670083    857.53537    1.0075386 
   33500   0.71977316   -6.7986202    1.9470839 0.0048434923 0.0052273093            5    5.3789707    856.60761    1.0086298 
   33600   0.74600409   -6.7692008    1.9365768 0.0048030177 0.0052252256            9    5.4331293     858.0829    1.0068957 
   33700   0.72696157   -6.7012364    1.9486936  0.004818728 0.0052228182           13    5.7151457    859.16944    1.0056224 
   33800   0.74823748   -6.6915587    1.9574017 0.0048259409 0.0052206952           38     5.874047    858.11313    1.0068603 
   33900   0.73437202   -6.7620104    1.9573802 0.0048116524 0.0052187545           18    5.8160265    853.80458    1.0119412 
   34000   0.72869943   -6.7177664    1.9626536 0.0048104253 0.0052166976           10    5.6999116    858.30975    1.0066296 
   34100    0.7370741   -6.7221698    1.9782254 0.0048343728 0.0052143726           25    5.5847758    859.57475    1.0051482 
   34200    0.7948311   -6.7375428    1.9780512 0.0048198128  0.005212687           16    5.6896579    857.68613    1.0073615 
   34300   0.74815955    -6.756292     1.965619 0.0047755564  0.005210311           11    5.7600947    854.66846    1.0109183 
   34400   0.75321271   -6.7425092    1.9815808  0.004800341 0.0052075821           30    5.7588815    856.11907    1.0092054 
   34500   0.79244261   -6.7222134    1.9999714 0.0048308488 0.0052055672           37    5.7492721    858.36183    1.0065685 
   34600   0.74915133   -6.7613576    1.9988007 0.0048140672  0.005203761           28    5.5957414    857.27351    1.0078464 
   34700   0.76099068   -6.7267668    1.9874546 0.0047729456 0.0052011193           15    5.8880993    855.30651    1.0101642 
   34800   0.78444666    -6.726397    1.9852634 0.0047539832 0.0051981395           25    6.1220264     852.9531    1.0129514 
   34900   0.74599426   -6.7255093     1.985285  0.004740413 0.0051949146           24    6.0850658    852.88178    1.0130361 
   35000   0.75332052   -6.7308784    1.9873776 0.0047318513 0.0051912231           19    5.3253503    862.78539    1.0014078 
   35100   0.72661245   -6.7563493    2.0066366 0.0047640945 0.0051872913           31    5.2759831    861.02615    1.0034538 
   35200   0.78579967   -6.7880519    2.0214179 0.0047855537 0.0051843921           31    5.5707085    855.25847    1.0102209 
   35300    0.7326304   -6.7674558     2.040007 0.0048158804 0.0051824095           22    6.1720048     848.6551    1.0180814 
   35400   0.70227924   -6.7908835    2.0528147 0.0048324262   0.00518091           26    5.8621441    850.35714    1.0160437 
   35500   0.75168779   -6.7887353    2.0704161 0.0048601315 0.0051797503           26     5.359514    857.93543    1.0070688 
   35600   0.71838387   -6.6853548    2.0794989 0.0048677408  0.005178842           31    5.8964334    857.78886    1.0072409 
   35700   0.78079573   -6.6997099    2.0863728 0.0048701512 0.0051782293           26    5.6778514    861.09652    1.0033718 
   35800   0.76184741    -6.736018    2.0813189 0.0048447832 0.0051770891           21    5.7036307    857.77983    1.0072515 
   35900   0.74671189   -6.7624457    2.0955025 0.0048642118 0.0051759216           22    5.5644891    857.27342    1.0078465 
   36000   0.70832406   -6.7740919    2.0962428 0.0048524138 0.0051748679           33    5.5373764    855.95807    1.0093952 
   36100   0.73200611   -6.7754563    2.1018436  0.004851901 0.0051734055           32    5.2160137    860.27075     1.004335 
   36200   0.75337051   -6.7517675    2.0972536 0.0048279317 0.0051716352           24     5.745192    855.45397    1.0099901 
   36300   0.74957438   -6.7818127     2.116106 0.0048579108 0.0051707455           14    5.8245147    851.98294    1.0141048 
   36400   0.75263816   -6.7374484    2.0921209 0.0047896539 0.0051693152           10    6.1948588    850.23588    1.0161886 
   36500   0.77945895   -6.7306707    2.1021019 0.0047993193 0.0051675704            6    6.0063736    853.70765    1.0120561 
   36600   0.73445774   -6.7541921    2.1024646 0.0047870322 0.0051658118            8    6.3215487    847.19979    1.0198303 
   36700   0.74140875   -6.7884032    2.1098819 0.0047908309 0.0051635763           23    5.9303589    849.71381    1.0168129 
   36800   0.74650063   -6.7594895    2.1511511 0.0048712659   0.00516218           18    5.4004498    859.43755    1.0053086 
   36900    0.7777845   -6.7843879    2.1661611 0.0048919626 0.0051619617           10    5.3990124    857.65422     1.007399 
   37000   0.72222732   -6.7627409    2.1586825 0.0048618974 0.0051613451            9    5.7616234    854.18793     1.011487 
   37100   0.76221812   -6.7492342    2.1684667 0.0048707698 0.0051605556           12    5.6768786    857.23559     1.007891 
   37200   0.75146736   -6.7333212    2.1670612 0.0048545278 0.0051597751           12    5.7073013    857.70056    1.0073446 
   37300   0.71705143   -6.7859595     2.177558 0.0048649642 0.0051590097           35    5.3891188    857.38596    1.0077142 
   37400   0.72414067   -6.7231394    2.1702411  0.004835653 0.0051577181           44    5.5620059    859.64616    1.0050647 
   37500   0.76224343    -6.774025    2.1819839 0.0048488531 0.0051564095           22     5.186444     861.9512    1.0023769 
   37600   0.73027564   -6.7688324    2.1786674 0.0048286068 0.0051552466           15    5.9968678    850.96041    1.0153234 
   37700   0.75819006   -6.7377285    2.1751912 0.0048081149 0.0051536687            9    6.0815335    852.26976    1.0137635 
   37800   0.75996731   -6.7355897    2.1797272  0.004805395 0.0051519668            9    5.8832661    854.89469    1.0106508 
   37900   0.71236118   -6.7330347    2.1749197 0.0047821453 0.0051497945           13    5.9039316    854.89671    1.0106484 
   38000   0.77635602   -6.7518232    2.1974419 0.0048189515 0.0051477582           15    5.5068486    858.48864    1.0064198 
   38100   0.74964736   -6.7740994    2.2128046  0.004839905 0.0051462769            9    5.1492494    862.20757    1.0020789 
   38200   0.71240423   -6.7560645    2.2081066 0.0048169864 0.0051446855           10    5.6368966    856.00841    1.0093359 
   38300   0.72038276   -6.7827663    2.2125726 0.0048141266 0.0051429738           11    5.5775424    855.35348    1.0101087 
   38400    0.7702098   -6.7506067    2.2286295 0.0048364354   0.00514138           29    5.6795148     856.7202    1.0084973 
   38500   0.73725125   -6.7512872    2.2562528  0.004883664  0.005141018           19    5.9662081    852.40102    1.0136074 
   38600   0.76424689   -6.7412422    2.2433024 0.0048430535 0.0051402794           18    6.1346108    851.28719    1.0149336 
   38700   0.75240081   -6.7188546    2.2593523 0.0048650996 0.0051394781           13    5.9946971    854.51226    1.0111031 
   38800   0.73373263   -6.7443839      2.27913 0.0048950387 0.0051394048           18    5.5586015    858.18499    1.0067759 
   38900    0.7136899   -6.7255786    2.3011475 0.0049296218    0.0051394           29     5.192353    864.14284    0.9998347 
   39000   0.77435529   -6.7393278    2.3156754 0.0049480242 0.0051399385           13     5.263258    863.47503     1.000608 
   39100   0.72408265   -6.7008468    2.3007746 0.0049036115 0.0051401234            9    5.9871593    855.62909    1.0097833 
   39200   0.77924379   -6.7194478    2.2958197  0.004880569  0.005140378            6    6.2256803    851.96366    1.0141278 
   39300   0.78187951   -6.7780534    2.3016503 0.0048805136 0.0051403843            8    5.9909953    850.60791    1.0157441 
   39400   0.73892768   -6.7785448    2.2990962 0.0048627246 0.0051399483           17    5.8757778    851.48144    1.0147021 
   39500   0.76724521   -6.7494857    2.3027421 0.0048581055 0.0051391721            9    5.6506711    857.34938    1.0077572 
   39600   0.73375415   -6.7409125    2.3157742  0.004873262 0.0051384004           25    5.6391395    857.98793    1.0070072 
   39700    0.7762152   -6.7092546    2.3463175 0.0049250997  0.005138237           23    5.7948228     858.4393    1.0064777 
   39800     0.755817   -6.6529142    2.3705756 0.0049635166 0.0051393523            8    5.8923102      860.149    1.0044771 
   39900   0.75104559   -6.7444355     2.372634 0.0049553758 0.0051404774            7     5.564325    858.89483    1.0059439 
   40000   0.76677918    -6.732699    2.3803106 0.0049589804 0.0051414106            4    5.5173175    860.59773    1.0039534 
   40100   0.75568817   -6.7188463    2.3850736 0.0049565119  0.005142322            7    5.4582171    861.61942    1.0027629 
   40200   0.74593796   -6.6864639    2.3819171  0.004937639 0.0051429312            3    5.9653601    857.23708    1.0078892 
   40300    0.7666606   -6.7451785    2.3984875 0.0049596515 0.0051438657           14    5.7835928    855.45017    1.0099945 
   40400    0.7191913   -6.7513945    2.4142557 0.0049799003 0.0051449882           12    5.6073164    857.13216    1.0080126 
   40500   0.73334814   -6.7481084    2.4297632 0.0049995128 0.0051460896            7    5.3562102    860.42914    1.0041501 
   40600   0.74660193   -6.7037969    2.4329948 0.0049938316  0.005147592            8    5.7637832    859.01488    1.0058033 
   40700   0.75409909   -6.7175018     2.443257 0.0050025737 0.0051492562            9     5.784063    857.54525     1.007527 
   40800   0.74088406    -6.769156     2.443883 0.0049915911 0.0051505237            8     5.719517    854.90584    1.0106376 
   40900   0.72177531   -6.7945515    2.4733116 0.0050393472 0.0051521638            7     5.388918    856.81787    1.0083823 
   41000   0.74584263   -6.6942887    2.4840556 0.0050488934 0.0051545064            5    6.2077106    852.83038    1.0130971 
   41100   0.74581136   -6.6976192    2.5004674 0.0050698852 0.0051572318           10    6.1433485    853.96564    1.0117503 
   41200   0.68544243   -6.7277794     2.513379 0.0050836953 0.0051600647            5      5.49699    859.67368    1.0050325 
   41300   0.73801519   -6.7648543    2.5259201  0.005096691 0.0051627287           10    5.1298618     862.5743    1.0016528 
   41400   0.75146973   -6.7271046    2.5444373 0.0051216531 0.0051655685            9    5.3241945    862.69444    1.0015133 
   41500   0.77568047    -6.720684    2.5515153 0.0051235247 0.0051689449            6    5.4621045    861.49962    1.0029024 
   41600    0.7369909   -6.7218693     2.578884 0.0051660337 0.0051725699           12    5.7948145    856.80459     1.008398 
   41700   0.77369984   -6.6983746    2.5786454 0.0051531683 0.0051766853           15    6.0035545    856.36496    1.0089156 
   41800   0.75159914   -6.7471324    2.6004671 0.0051843443 0.0051807904           11    5.7208031    856.82523    1.0083737 
   41900    0.7666098   -6.7429654    2.6132446 0.0051973838 0.0051851928           10     5.619148    858.59841    1.0062912 
   42000   0.81127683    -6.711056    2.5946127 0.0051480409  0.005189299            6    5.7658335    859.00009    1.0058206 
   42100   0.74697851   -6.7235319    2.5768653 0.0051006834 0.0051921005            9    5.8877329    855.55582    1.0098698 
   42200   0.71931455   -6.6853892    2.6002815 0.0051348371 0.0051950171            5    5.7130471    860.33622    1.0042585 
   42300   0.76760867   -6.6767613    2.6276859  0.005176686 0.0051984195           11    5.3718324    866.35912   0.99727697 
   42400   0.74589799   -6.6688895    2.6208979 0.0051511358 0.0052019612            7    5.7888137     860.9396    1.0035547 
   42500   0.75698553   -6.7091209    2.6208523 0.0051389259 0.0052052623            7    5.9561127    855.51747    1.0099151 
   42600   0.73496809   -6.7565955    2.6129514 0.0051114072 0.0052081095           10    5.8345019    853.75893    1.0119953 
   42700   0.79948008   -6.7965771    2.6331538 0.0051388637 0.0052109321           18    5.4060264    857.32847    1.0077818 
   42800   0.73074204   -6.7309785    2.6151258 0.0050917557 0.0052135072            9    5.9347374    854.63382    1.0109593 
   42900    0.7952997   -6.7498295    2.6081349 0.0050663071 0.0052153108           32    5.7685087     855.9992    1.0093467 
   43000    0.7496871    -6.751537    2.6249905 0.0050871907 0.0052170864           20    5.4763015    859.00881    1.0058104 
   43100   0.71310496   -6.7390683    2.6513309 0.0051263164 0.0052193273           44    5.5585598    858.70076    1.0061712 
   43200   0.75869912   -6.7197327    2.6692188  0.005148956 0.0052220584           46    5.6816948    859.13699    1.0056603 
   43300   0.75380541   -6.7055314    2.6690903 0.0051368172 0.0052250408           38    6.0368194    855.45521    1.0099886 
   43400   0.73324782   -6.7814485    2.6608971 0.0051092493 0.0052276885           60    5.8664685    851.77626    1.0143509 
   43500   0.75013844   -6.7675381     2.669472 0.0051139309 0.0052298404           43    5.7082718    855.10115    1.0104068 
   43600   0.72572292    -6.727067    2.6848367 0.0051315686 0.0052322401           30     5.674232    858.45121    1.0064637 
   43700   0.77351116   -6.7274485     2.695599  0.005140349 0.0052346882           49    5.5537403    859.99106    1.0046616 
   43800   0.72539472   -6.7343124    2.6819608  0.005102665 0.0052369889           32    5.7493738    856.36517    1.0089154 
   43900   0.77031264   -6.7799077     2.693355 0.0051126708 0.0052388838           52    5.5095964    857.23772    1.0078885 
   44000   0.76786688    -6.752258    2.6951636 0.0051044765  0.005240779           43    6.0110122    852.54222    1.0134395 
   44100   0.78087396   -6.7470517    2.6921858 0.0050872747 0.0052429561           35    6.3770323     848.1034    1.0187437 
   44200    0.7831283   -6.6792201     2.691929  0.005075281 0.0052449767           30    6.5070772     851.3146     1.014901 
   44300   0.76214772   -6.7445111    2.7106063 0.0050989584  0.005246726           32    5.5542004    858.46927    1.0064425 
   44400   0.74623397   -6.7875647    2.7221864 0.0051092086 0.0052481323           19    5.1356918    861.07149     1.003401 
   44500   0.70272001   -6.7551293    2.7267084 0.0051061954 0.0052496971           28    5.6657995    855.73152    1.0096625 
   44600   0.73737603   -6.7706848    2.7205869 0.0050833089 0.0052511508           54    5.6171238    856.30959    1.0089809 
   44700   0.76747189   -6.7416899    2.7357284 0.0051001647 0.0052525991           19    5.5696867    859.22312    1.0055595 
   44800   0.74424126   -6.7446029    2.7284124 0.0050751718 0.0052540857           19    5.7023578    856.76627    1.0084431 
   44900   0.74073077   -6.7232558    2.7267441 0.0050607722 0.0052550284           31    6.0102968    853.75356    1.0120016 
   45000   0.76657686    -6.726529    2.7559542 0.0051036189 0.0052567175           35    5.9557351    854.57145    1.0110331 
   45100   0.76041729   -6.7395245    2.7579731  0.005096033 0.0052584604            8    5.8477222    855.48751    1.0099505 
   45200   0.78336977   -6.6924582    2.7659755 0.0050995124 0.0052600382           22    5.6661598    861.35892    1.0030662 
   45300   0.74880977   -6.7144364    2.7775812 0.0051096049 0.0052614518           22    5.6892312    859.01098    1.0058079 
   45400   0.74783841   -6.7400305    2.7862042 0.0051141781 0.0052630279           24    5.6838521    857.43989    1.0076508 
   45500    0.7282965   -6.7695916    2.7925263  0.005114517 0.0052648855            8    5.7547754    853.73229    1.0120268 
   45600   0.74550219    -6.730664    2.8108801 0.0051368422 0.0052663675           18    5.6783473    857.87683    1.0071376 
   45700   0.74752016   -6.7177347    2.8354871 0.0051704724 0.0052685889           24     5.725532    857.90003    1.0071103 
   45800   0.71317062   -6.7124633    2.8522133 0.0051896166 0.0052712582            7     5.987012    854.98036    1.0105495 
   45900   0.75023079   -6.7434241    2.8537894 0.0051811718 0.0052738015            9       5.5478    858.83931    1.0060089 
   46000   0.73783297   -6.6961289    2.8712201 0.0052014856 0.0052764759           13    5.6221241     861.8183    1.0025315 
   46100   0.76224835   -6.6632578    2.8587278 0.0051676207 0.0052789544           10    5.9592602    859.24251    1.0055368 
   46200   0.72980534   -6.6808472    2.8468633 0.0051350347 0.0052809032            8     5.879635     858.8243    1.0060265 
   46300   0.73666835   -6.6977622    2.8697694 0.0051651716 0.0052826852            5    5.6757883    860.56773    1.0039884 
   46400   0.75649466   -6.7673183    2.8612029 0.0051386546  0.005284586            9    5.5364769    857.42161    1.0076723 
   46500   0.75119483   -6.7321189    2.8509611 0.0051092492 0.0052860053            3    5.9241519    854.76114    1.0108087 
   46600   0.75507258   -6.6676344     2.878837 0.0051481348 0.0052879204            4    6.3161266    854.22492    1.0114432 
   46700   0.75369525   -6.7446267    2.8813659 0.0051416236 0.0052897936            4    5.6064506    858.37626    1.0065516 
   46800   0.73088923   -6.7766007    2.8892001 0.0051445869 0.0052913489            2    5.2662088    860.58614    1.0039669 
   46900   0.72841688   -6.7332716    2.8966186 0.0051467991 0.0052925725            4    5.0327456    866.26952   0.99738013 
   47000   0.74684375    -6.686338    2.8987879 0.0051396948 0.0052938072            6    5.3201662    865.88452   0.99782359 
   47100    0.7696151   -6.6825143    2.9129754 0.0051538843 0.0052954597            7    5.7734879    860.37392    1.0042145 
   47200   0.75378585   -6.7232778    2.9332412  0.005178745 0.0052972808           11    5.7170358    858.22471    1.0067293 
   47300   0.75267553   -6.6736111    2.9470695 0.0051921591 0.0052996275            6    5.8907049    859.22455    1.0055579 
   47400   0.75511458   -6.6380557     2.965098 0.0052129008 0.0053021059            7    5.9656083    861.14573    1.0033145 
   47500   0.75446965   -6.7281001     2.955214 0.0051845859 0.0053044318            7    5.7834729    856.56228    1.0086832 
   47600    0.7429524   -6.7481602    2.9898005 0.0052342445 0.0053067722           10    5.3010297    862.13091     1.002168 
   47700   0.77213589   -6.7279901     3.001598 0.0052438818 0.0053093606            8    5.2603895    864.37238   0.99956919 
   47800   0.75798383   -6.6808117    2.9854209 0.0052047086  0.005311782           11     5.803228    860.51933    1.0040448 
   47900   0.71322312   -6.6835613    2.9990774 0.0052176015 0.0053141249            7    5.9684988    856.55697    1.0086895 
   48000   0.74772305   -6.7044896    2.9971589 0.0052034008 0.0053163516            5      5.72041    860.01729     1.004631 
   48100   0.76916795   -6.7184786    3.0030804 0.0052028419 0.0053185483            7     5.741508    858.21896    1.0067361 
   48200   0.77167984   -6.7777672    2.9728901 0.0051398514 0.0053203008            6    5.7470873    853.89869    1.0118296 
   48300   0.74006247   -6.7017288    2.9758869 0.0051343803 0.0053216481            5    6.3635254    850.74774    1.0155772 
   48400   0.78065297   -6.7480047    3.0021448  0.005168982 0.0053230157            6    5.3672484     861.3667    1.0030571 
   48500   0.74897522   -6.7478717    3.0206122 0.0051900552 0.0053246325            8    5.4934965    859.74519    1.0049489 
   48600   0.74394192   -6.7004131    2.9969853 0.0051388635 0.0053261245            6    6.1922719    853.50492    1.0122964 
   48700   0.73455085   -6.7559952    3.0154809 0.0051599605 0.0053275585            3    5.9486845    852.56446    1.0134131 
   48800   0.74007931   -6.7447385    3.0375014   0.00518699  0.005328954            5    5.5683499    858.39262    1.0065324 
   48900   0.74630288   -6.7230142     3.061572 0.0052174028 0.0053308392            3    5.4333685    861.95035    1.0023779 
   49000   0.71157426   -6.7457823    3.0613087 0.0052063072 0.0053329625            4    6.0133667    851.87777      1.01423 
   49100   0.75591536   -6.7224635    3.0646043 0.0052012972 0.0053350698            2    6.3243059    850.39178    1.0160023 
   49200   0.75790934   -6.7634884    3.1085915 0.0052652294 0.0053373562            2    5.5603662    857.11127    1.0080372 
   49300   0.73225349   -6.7052139    3.1290761 0.0052891752 0.0053401308            3    5.4510563    862.72439    1.0014786 
   49400   0.72131543   -6.6865579    3.1477541 0.0053099764 0.0053432602           10    5.3832779    864.83534   0.99903411 
   49500   0.76345003   -6.8268185    3.1427508 0.0052908263 0.0053460879           16    5.3903966    855.35387    1.0101083 
   49600   0.75444844    -6.728947    3.1183697 0.0052391964 0.0053486981           15    6.2154071    850.64761    1.0156967 
   49700   0.76325223   -6.7379082    3.1191334 0.0052299353 0.0053510314           13    5.8303221    855.88578    1.0094805 
   49800   0.73670265   -6.7220425    3.1469207 0.0052659316 0.0053533359            7    5.6424378    858.34133    1.0065926 
   49900   0.77199611   -6.7083576    3.1821784 0.0053142591 0.0053561428           14    5.3800313    863.71136    1.0003342 
   50000   0.73932894   -6.7119742    3.1662194 0.0052770322 0.0053590377           23    5.8316851    857.46937    1.0076162 
   50100   0.73888841   -6.7290364    3.1523487 0.0052434276 0.0053614562           30    5.8840629    855.05577    1.0104604 
   50200   0.77233521   -6.7196839    3.1923088 0.0052993173 0.0053639831           14    5.3329568     864.4024   0.99953448 
   50300   0.74786016   -6.6782396    3.1839414 0.0052749195 0.0053666815           15    5.9111287    858.49542    1.0064119 
   50400   0.74987302   -6.7321715    3.1920271 0.0052778226 0.0053690833           11    5.8957435    855.39368    1.0100612 
   50500   0.74875197   -6.7383926    3.2186656 0.0053113293 0.0053716966           11    5.3656166    862.14158    1.0021556 
   50600   0.77224361   -6.7212304    3.2266374 0.0053139613 0.0053743781           15    5.0396996    867.78078   0.99564316 
   50700   0.76214755   -6.6985895    3.2218115 0.0052955482 0.0053768716            7    5.5197588    862.46692    1.0017775 
   50800   0.74238628   -6.7339324    3.1798935 0.0052163607 0.0053789126            7    5.8697312    854.96472     1.010568 
   50900    0.7658068   -6.7301694    3.2393916 0.0053035226 0.0053811155           16    5.4367995     861.6627    1.0027125 
   51000   0.74044407   -6.7296769    3.2498242 0.0053101702  0.005383807           10    5.6826819    858.17336    1.0067896 
   51100   0.77271096   -6.7590513    3.2757728 0.0053420952 0.0053868484           10    5.8048195    854.78235    1.0107836 
   51200   0.77583509    -6.672329    3.2971381 0.0053664357 0.0053902028           16    5.7652194    861.43095    1.0029823 
   51300   0.75660748   -6.7110024    3.2886916  0.005342254 0.0053935068           12    5.5602881     861.3261    1.0031044 
   51400   0.76831889   -6.7335184    3.2880647 0.0053308442 0.0053965331           11    5.7959423    856.82442    1.0083746 
   51500   0.73151037   -6.6796243    3.2783873 0.0053048338  0.005399103            6    6.1534548    854.68126    1.0109032 
   51600   0.79119834    -6.725767    3.2995849  0.005328787 0.0054016909           11    5.4570361    861.96716    1.0023584 
   51700   0.73429657   -6.7184154    3.3122742 0.0053389331 0.0054044387            9     5.366753     862.7123    1.0014926 
   51800   0.74268713   -6.7242449    3.2931751 0.0052979007 0.0054069383            4    5.7023702    858.51406      1.00639 
   51900   0.76014155   -6.7031858    3.3024461 0.0053025788 0.0054091554            5    5.9131267    857.33726    1.0077714 
   52000   0.76094807   -6.6675227    3.3311884 0.0053384429 0.0054117563            9    5.7752547    861.51967     1.002879 
   52100    0.7283398    -6.720665    3.3355942 0.0053352433 0.0054144115            5    5.5946582    859.77987    1.0049084 
   52200   0.74625798   -6.6936703    3.3455023 0.0053408402 0.0054169483            8    5.6404576    860.74799    1.0037781 
   52300   0.73634162   -6.7314495    3.3448093 0.0053295241 0.0054195596           11    5.6022346    858.79841    1.0060568 
   52400   0.72160357    -6.724407    3.3516878 0.0053302923 0.0054219644            6    5.7373966    857.23896     1.007887 
   52500   0.76248712    -6.721775    3.3640072 0.0053396939 0.0054243303            8    5.3013509    863.91578    1.0000975 
   52600   0.74454986   -6.7340502     3.363592 0.0053288846 0.0054267513            9    5.5497451    859.34791    1.0054135 
   52700   0.73843638   -6.7294627    3.3487145 0.0052952475  0.005428834            4    5.6312262    858.67968    1.0061959 
   52800   0.76067353   -6.6873217    3.3564991 0.0052975048  0.005430785            7    5.8417097    859.56206     1.005163 
   52900   0.74467924   -6.6859646    3.3679413 0.0053055156  0.005432819           12    5.8498028    859.10803    1.0056942 
   53000   0.75077867   -6.7256887    3.3669702 0.0052939783 0.0054347365           11    5.5520259    860.20618    1.0044104 
   53100   0.73792174   -6.7087991    3.3898726 0.0053199506 0.0054366275            9    5.5426908    861.04595    1.0034308 
   53200   0.74476862   -6.6731752    3.3911391 0.0053119347 0.0054387173            7    5.8239781    859.89154    1.0047779 
   53300   0.74261097   -6.7366865    3.4026025 0.0053198912 0.0054408071            8    5.7404949    857.14039    1.0080029 
   53400   0.74496314   -6.7361377    3.4226385 0.0053411961 0.0054429324           11    5.5260406     859.6114    1.0051053 
   53500   0.78731488   -6.7067248    3.4246648 0.0053343687 0.0054453563           11    6.0548781    855.22022    1.0102661 
   53600   0.75312762   -6.7131476    3.4348189 0.0053402035 0.0054477235           15    5.8953471    856.41693    1.0088544 
   53700   0.75956004   -6.7004417    3.4445277 0.0053453254 0.0054501575           13    5.8036468    858.59671    1.0062932 
   53800   0.74519765   -6.7194053    3.4332598 0.0053179365 0.0054522199            7    5.6187368    860.00049    1.0046506 
   53900    0.7423922   -6.7448032    3.4249049 0.0052951528 0.0054538401            3    5.7933212    855.88148    1.0094856 
   54000   0.76947848   -6.7038143    3.4219889  0.005280847 0.0054553899           10    5.7439199     859.6624    1.0050457 
   54100   0.74941801   -6.7396986    3.4429006 0.0053032972 0.0054568434            7    5.4251598    860.58793    1.0039648 
   54200   0.75382343   -6.7534513    3.4294105 0.0052727713 0.0054582846            7    5.6939072    855.95452    1.0093994 
   54300   0.75736897   -6.7219094    3.4640202 0.0053161759 0.0054598591            7    6.0096648    854.11704     1.011571 
   54400   0.73243672   -6.7356392    3.4993235 0.0053604833  0.005461883            6    5.5016667    860.02553    1.0046213 
   54500   0.76299573   -6.7933726    3.4920932  0.005339592 0.0054639314            5    5.3958689    857.65793    1.0073946 
   54600   0.74209383   -6.7982863    3.4764488 0.0053059352 0.0054655634            7    5.5778571    854.43691    1.0111923 
   54700   0.72597785   -6.7636847     3.475214  0.005294354 0.0054669516           16    5.6949952    854.98093    1.0105489 
   54800   0.73546292   -6.7471232    3.4913637 0.0053092514 0.0054683702            9    5.2129347    862.43099    1.0018193 
   54900   0.72562314   -6.7487834    3.4832154 0.0052872121 0.0054693965            8    5.1931196    862.80262    1.0013878 
   55000   0.72288816    -6.793729    3.4847477 0.0052799207 0.0054702407            8    5.4571442    856.34171     1.008943 
   55100    0.7430064    -6.760159    3.4550648 0.0052254458 0.0054709229           14    5.8052353    854.24458    1.0114199 
   55200   0.78261812   -6.7384908    3.4829905 0.0052581378 0.0054717864           24    5.8910681     855.3235    1.0101441 
[...]
   89400   0.73810898   -6.8428611    5.2621766 0.0049050863 0.0053172057          249     5.423858    853.07944    1.0128013 
   89500   0.74387396    -6.852507    5.2657811 0.0049029618 0.0053148919          242    5.2403747    855.11156    1.0103945 
   89600   0.75977368   -6.8708609     5.280432 0.0049111161 0.0053126232          268    5.2954097    853.41596     1.012402 
   89700   0.73907335   -6.8632956    5.1996009  0.004830547 0.0053102766          291    6.0962791    842.92286    1.0250048 
   89800   0.77970567   -6.8181464    5.2013591 0.0048267994 0.0053076782          290     6.279821    843.48227     1.024325 
   89900   0.75522437   -6.8372481    5.2254963 0.0048438045 0.0053051943          271    5.8561184    848.23226    1.0185889 
   90000   0.79584628   -6.8352785     5.238433 0.0048504009 0.0053026262          293    5.6698933    850.99736    1.0152793 
   90100   0.73729326   -6.8400759    5.2716982 0.0048757844 0.0053002734          301    5.6860577    849.53914     1.017022 
   90200   0.76130213   -6.8634398     5.295865  0.004892706 0.0052980723          294     5.659162    848.49768    1.0182703 
   90300   0.74612056   -6.9095283    5.3032091 0.0048940652 0.0052958761          296    5.4206246    848.10132    1.0187462 
   90400    0.7652265   -6.8246231     5.303016 0.0048884734 0.0052937618          309    6.0991305    845.47194    1.0219145 
   90500   0.75800244   -6.8593068    5.2831287 0.0048647594 0.0052915234          307    5.7333043    847.57804    1.0193752 
   90600   0.72887704   -6.7986787    5.3030911 0.0048777512 0.0052892855          305     6.001153    848.24786    1.0185702 
   90700   0.78565011    -6.830814    5.3218549  0.004889613 0.0052871623          305    5.5998162    851.52453    1.0146507 
   90800   0.74882687   -6.8668343    5.3062143 0.0048698736 0.0052849684          296    5.6551827    848.03702    1.0188234 
   90900   0.73513385   -6.8667205    5.2898565   0.00484952 0.0052826287          302    5.5761437    849.17227    1.0174614 
   91000   0.76886073   -6.8322258    5.3038826 0.0048570353 0.0052802854          302    5.8931979    847.69546     1.019234 
   91100   0.77264504   -6.8502138     5.300021 0.0048481714 0.0052780099          300    5.9884917    845.32475    1.0220924 
   91200   0.73528341   -6.8715051    5.3076881 0.0048498612 0.0052756783          306    5.9146631    844.67368    1.0228802 
   91300   0.73453999   -6.9122176     5.341569 0.0048754737 0.0052734689          310    5.3775229    848.21968    1.0186041 
   91400   0.75563429   -6.8850168    5.3726133 0.0048984439 0.0052713153          302    5.1449497    853.63471    1.0121425 
   91500   0.71375453   -6.8390153    5.3529006 0.0048751371 0.0052691841          294     5.695734    849.60423    1.0169441 
   91600   0.80624223    -6.892772    5.3248357 0.0048442828 0.0052669822          320    5.8068124    845.31248    1.0221072 
   91700   0.78100995   -6.8499791    5.3036212 0.0048197212 0.0052646368          316    5.9775585    845.66201    1.0216848 
   91800   0.72141626   -6.8410034    5.2928146  0.004804661  0.005262143          325    5.7979441    847.83819    1.0190624 
   91900   0.74247725   -6.8120846    5.3360499 0.0048386379 0.0052595975          314    5.4553782    854.73678    1.0108375 
   92000   0.73124068   -6.8739189    5.3752473 0.0048688834 0.0052572767          318    5.0886034    854.81578    1.0107441 
   92100   0.75960501   -6.8689704     5.348324 0.0048392363 0.0052550061          312    5.7176498     847.1903    1.0198417 
   92200    0.7021946   -6.8604596    5.3553017 0.0048402944 0.0052527348          342    5.9624356     843.4672    1.0243433 
   92300     0.735142    -6.836818    5.3638785 0.0048427938 0.0052504438          285    6.0149902    844.85557      1.02266 
   92400    0.7833387   -6.8641144    5.4104848 0.0048795858 0.0052484326          296    5.6085289     849.5974    1.0169523 
   92500   0.74804439   -6.8608586    5.3990116 0.0048639744 0.0052464128          321    5.7565369    847.21604    1.0198107 
   92600    0.7238815    -6.903174    5.3807347 0.0048422738 0.0052441902          349    5.5110503    847.40963    1.0195777 
   92700   0.74735531   -6.8896936    5.3982876 0.0048528295 0.0052418461          351    4.9757733    855.58783     1.009832 
   92800    0.7349563   -6.8062525    5.3932026 0.0048430339 0.0052395986          317    5.4314079    855.22918    1.0102555 
   92900   0.72924121   -6.8496507    5.3627435 0.0048104983 0.0052372156          326    5.8114492    847.03536    1.0200283 
   93000   0.75507009   -6.8757172    5.3695551 0.0048114293 0.0052347795          364    5.6988013    847.12816    1.0199165 
   93100   0.75962253   -6.8414672    5.4003045 0.0048337849 0.0052324731          356    5.5741666    851.05949    1.0152052 
   93200   0.73518842   -6.8439215    5.4331004 0.0048579223 0.0052303452          385    5.6099463    850.83016    1.0154788 
   93300   0.73095574   -6.9160481    5.4608872 0.0048775341   0.00522823          390    4.9001396    854.51855    1.0110957 
   93400   0.71690508   -6.8497759    5.4368011 0.0048508218 0.0052261294          390    5.6463885    849.24644    1.0173725 
   93500   0.71388641   -6.9168927    5.4193182 0.0048300518 0.0052239023          405     5.599658    845.19206    1.0222529 
   93600   0.75024043   -6.9083873    5.4143728 0.0048204886 0.0052216715          414    5.5889354      846.561    1.0205998 
   93700    0.7347366   -6.8401751    5.4067267 0.0048085439 0.0052194011          411    5.9947772    845.15181    1.0223015 
   93800   0.70182401   -6.9083735    5.4312355 0.0048251914 0.0052170663          425    5.2643859    849.87928     1.016615 
   93900   0.69665591   -6.8441074    5.4459072 0.0048330735 0.0052147691          425    5.5880244    850.23889     1.016185 
   94000   0.78391393   -6.9088061    5.4438551 0.0048261126 0.0052125798          385    5.3212563    850.24898    1.0161729 
   94100   0.74559899   -6.8704159    5.4238501 0.0048032679 0.0052103061          404    5.9902586     843.5003    1.0243031 
   94200   0.79954223    -6.885796    5.4111925 0.0047869714 0.0052080883          410    6.1248742     841.1104    1.0272135 
   94300   0.75968778   -6.8517181    5.4376769 0.0048052995 0.0052058577          397    6.1593703    843.24053    1.0246187 
   94400   0.72928718   -6.9377721    5.4958211  0.004851537  0.005203779          361    5.3688185    847.03622    1.0200272 
   94500   0.74818049   -6.9251881    5.4840635 0.0048360348 0.0052017108          375    5.4463864    846.99706    1.0200744 
   94600   0.76587279   -6.9193255     5.462134 0.0048116049 0.0051995542          420    5.7159292    843.75239    1.0239971 
   94700   0.71389098   -6.8965444     5.459775 0.0048044482 0.0051973392          438    6.0311827    840.76346    1.0276374 
   94800   0.74529769   -6.9145159    5.5067884 0.0048407071 0.0051952429          469    5.6052001    845.63233    1.0217206 
   94900   0.75684713   -6.9030591    5.5021804 0.0048315598 0.0051932188          459    5.4416525    848.48826    1.0182816 
   95000   0.75072034   -6.9613067    5.4724376 0.0048003839 0.0051910289          472    5.7527422    840.76173    1.0276395 
   95100    0.7696897    -6.971246    5.4774045 0.0047996885 0.0051887891          451    5.7756084    839.59492    1.0290677 
   95200   0.79112603   -6.9102895    5.4938629 0.0048090537 0.0051866273          410    5.8342981    843.34867    1.0244873 
   95300   0.77900158   -6.9189481    5.4856962 0.0047968662 0.0051844955          442    5.7942785    843.19003      1.02468 
   95400   0.76030094    -6.961065     5.508581 0.0048118282 0.0051823647          467    5.7915047    839.85892    1.0287442 
   95500   0.74792376   -6.9218614     5.559472 0.0048511972 0.0051804231          491    5.6131069    845.15656    1.0222958 
   95600   0.75557059   -6.9215205    5.5602264 0.0048467803 0.0051785895          505    5.5627022    845.84824    1.0214598 
   95700   0.73982269   -6.9348757    5.5882975 0.0048661594 0.0051768004          538    5.7562393    842.25629     1.025816 
   95800   0.75565461   -6.9899856    5.6150303 0.0048843339 0.0051751709          560    5.3842496    843.55989    1.0242308 
   95900   0.73521295   -6.9915647    5.6028991 0.0048686992 0.0051734684          570    5.6702918    838.83428    1.0300008 
   96000    0.7641339   -6.9822601    5.6036216 0.0048642548 0.0051718525          587    5.8425043      837.635    1.0314755 
   96100   0.76011239   -6.9669722    5.6181968 0.0048718321 0.0051702404          595    6.0436018    836.73527    1.0325847 
   96200   0.74667371    -7.028361    5.6132778 0.0048625067 0.0051686619          618     5.786766    835.93155    1.0335774 
   96300   0.74678355   -6.9934879    5.6099854 0.0048546083 0.0051670092          628    6.0289145    835.10358    1.0346022 
   96400   0.77008598   -6.9850599    5.6507996 0.0048848544 0.0051653615          625    5.4874626    841.70258    1.0264908 
   96500   0.74569641   -6.9799442    5.6529223 0.0048816255   0.00516379          629    5.4772593    842.41957    1.0256172 
   96600   0.75109306   -7.0272969    5.6523891  0.004876112 0.0051621982          656    5.3885579    840.40661    1.0280738 
   96700   0.74052354   -7.0853376    5.6251689 0.0048476119 0.0051605324          699    5.6262003    833.45681    1.0366464 
   96800   0.76525016   -7.0706301    5.6429002 0.0048578686 0.0051588641          720    6.1389344    828.68048    1.0426214 
   96900   0.77141491   -7.0474284    5.6512017 0.0048599946  0.005157368          734    6.4888626    826.28767    1.0456407 
   97000   0.76477856   -7.0839439    5.6966562 0.0048940345 0.0051559631          744    5.8982844    830.17237    1.0407477 
   97100   0.76061854   -7.1693673    5.7108082 0.0049011399 0.0051545972          755    5.3654715     831.7259    1.0388038 
   97200   0.75741054   -7.1816585    5.7408772 0.0049218769 0.0051532171          756    5.1367481    833.15101    1.0370269 
   97300   0.75727342   -7.1211898      5.75077 0.0049252912 0.0051519867          752    5.8484965    829.07704    1.0421227 
   97400   0.75484613    -7.124023    5.7455251  0.004915747 0.0051508451          760     6.299152    824.01943     1.048519 
   97500   0.77548967   -7.1574116      5.76382 0.0049263419 0.0051497504          785     5.673136     829.0188    1.0421959 
   97600    0.7579526   -7.1824306    5.7909849 0.0049444885 0.0051486083          779     5.222857    832.44773     1.037903 
   97700   0.72345965   -7.1283225    5.7678483 0.0049196932 0.0051474062          774    5.7350825    829.67634    1.0413699 
   97800   0.76446007   -7.1789221    5.7792872 0.0049244097 0.0051462281          799    5.4703851    829.79825    1.0412169 
   97900   0.77889085   -7.1207617    5.7861373 0.0049252105 0.0051451033          798    5.8790939    828.89884    1.0423467 
   98000   0.76963413   -7.1541735    5.7934126 0.0049263713 0.0051439819          794    5.6832294    828.86438    1.0423901 
   98100   0.77132429   -7.1838235    5.7664939 0.0048984828 0.0051427891          810     5.821304    825.43967    1.0467149 
   98200   0.73535192   -7.1668725    5.7514971 0.0048807681 0.0051414379          822    6.0883628    823.48723    1.0491966 
   98300   0.77527121   -7.1862818    5.7830177 0.0049025243 0.0051401042          824    5.3463409    830.73859    1.0400384 
   98400   0.74115149   -7.1629641    5.7803918 0.0048953183  0.005138736          800    5.0842309     834.9059    1.0348472 
   98500   0.73264306   -7.2045936    5.7455299 0.0048608544 0.0051371974          812    5.4084615    828.12257    1.0433238 
   98600   0.72230473    -7.137332    5.7143352 0.0048295598  0.005135515          823    6.0513981    825.55708     1.046566 
   98700    0.7290041   -7.1195011    5.7402548 0.0048465508 0.0051338906          828    6.1184628    825.41946    1.0467405 
   98800   0.76499496   -7.1927961    5.7380812  0.004839812 0.0051323171          832     5.409662    829.60918    1.0414542 
   98900   0.71276475    -7.195609    5.7491978 0.0048442852 0.0051306098          833    5.5182387     827.5473    1.0440491 
   99000   0.72797273   -7.1875654    5.7622316 0.0048503633 0.0051289719          831    5.4896367    828.15542    1.0432824 
   99100   0.74059199   -7.1935003    5.7397816 0.0048265906 0.0051273011          827    5.5597506      827.524    1.0440785 
   99200   0.76318574   -7.2300318     5.738673 0.0048207938 0.0051255514          821    5.6963195    823.92715    1.0486364 
   99300   0.73201827   -7.1972668     5.746327 0.0048223623 0.0051238756          824    6.2232197    820.25961    1.0533251 
   99400   0.77483642   -7.2073474    5.7982689  0.004861057 0.0051223485          837    5.6819665    826.21418    1.0457337 
   99500   0.74600958   -7.2043144    5.8222451 0.0048762522 0.0051209194          834    5.3093251    829.75744    1.0412682 
   99600   0.72669655   -7.2330111    5.7829982 0.0048385192 0.0051194144          833    5.5912654    824.59934    1.0477816 
   99700   0.73860539   -7.1837629    5.7919569 0.0048411542 0.0051177756          828    5.5994427    828.11867    1.0433287 
   99800   0.76895728    -7.220581    5.7944358 0.0048383732 0.0051162037          826    5.5102006    827.30885      1.04435 
   99900   0.75411837   -7.2227144    5.7455265 0.0047927315 0.0051144664          834    5.6887308    824.86814    1.0474401 
  100000   0.74631429    -7.299008    5.7607175 0.0048005979  0.005112571          833    5.4122777    823.02675    1.0497836 
  100100   0.71697194    -7.192796    5.7766739 0.0048090858 0.0051107794          807    5.4145484    829.95906    1.0410152 
  100200   0.77424263   -7.2261492      5.79431 0.0048189537 0.0051090319          802    5.2671271    829.94543    1.0410323 
  100300   0.75738235   -7.2171218    5.7251602 0.0047566967  0.005107172          823    5.9097394     822.9836    1.0498387 
  100400   0.73732137   -7.2513715    5.7325252  0.004758072 0.0051051255          833    5.8293593    821.66442    1.0515242 
  100500   0.74964313   -7.2388719    5.7417898 0.0047610197 0.0051031062          827    5.3099297    827.94431    1.0435484 
  100600   0.69420764   -7.1714449    5.7526174 0.0047652563 0.0051010219          823    5.6058319    827.72627    1.0438233 
  100700   0.71961965   -7.1488817     5.808679 0.0048069174 0.0050990411          822    5.3871768    832.17894    1.0382382 
  100800   0.72386254   -7.1734042    5.7874584 0.0047846051 0.0050971942          832    5.2988547    831.93655    1.0385407 
  100900   0.73828818   -7.2290776    5.7708552 0.0047661506 0.0050951759          846    5.3609996    827.57511     1.044014 
  101000   0.75209266    -7.226898    5.7595049 0.0047520667 0.0050931339          841    5.7634058    823.42939    1.0492703 
  101100   0.75822667   -7.2327622    5.7391286 0.0047305709 0.0050911132          829    5.9844443    820.46195    1.0530653 
  101200    0.7959893   -7.2114616    5.7803666 0.0047598539  0.005089128          828    5.7152566    825.28406    1.0469123 
  101300   0.76005634   -7.2342804    5.7741985  0.004750081 0.0050871645          823    5.5690391    825.44257    1.0467112 
  101400   0.76209303    -7.275567    5.7998458 0.0047664742 0.0050852153          834    5.4182203    824.57313    1.0478149 
  101500   0.77407904   -7.2465804    5.7804507 0.0047458544  0.005083228          836    5.5946093     823.9534     1.048603 
  101600   0.76533292   -7.2018938     5.804515 0.0047609211 0.0050812832          818    5.7515014    825.12483    1.0471143 
  101700   0.72035563   -7.2171903     5.807055  0.004758321 0.0050794085          830    5.9251827    822.20131    1.0508375 
  101800   0.71340738   -7.2234147    5.8224171 0.0047662222 0.0050775125          823    5.7380142    823.62174    1.0490252 
  101900    0.7389412   -7.2364561    5.8336238 0.0047707096 0.0050756699          814    5.3161715    828.16401    1.0432716 
  102000   0.75796998   -7.1865554    5.8254527 0.0047593568 0.0050737793          825    5.6995051    826.79646    1.0449972 
  102100   0.74743854   -7.2158054    5.8491406 0.0047740292 0.0050719683          832    5.4219686    827.57572    1.0440132 
  102200   0.73570409   -7.2666841    5.7917907 0.0047225951 0.0050699319          833    5.4568169     823.9727    1.0485784 
  102300    0.7374171   -7.2061094    5.7873932 0.0047143966 0.0050677609          836     5.833423     823.8733    1.0487049 
  102400   0.75792097   -7.1603223    5.8350599 0.0047485839 0.0050658223          834    6.0323433     824.8644    1.0474449 
  102500   0.76458124    -7.270824    5.8283334 0.0047384824 0.0050639097          832    5.1960879    827.17142    1.0445235 
  102600   0.72102718   -7.1723835    5.8173058 0.0047249072 0.0050618404          824    5.9587913    824.21437     1.048271 
  102700   0.75500279   -7.2203797    5.7996099 0.0047059476 0.0050598115          830    5.8523272    823.06065    1.0497404 
  102800   0.77739071   -7.2884166    5.8180242 0.0047162971 0.0050577236          826    5.5089667    822.99674    1.0498219 
  102900   0.76563574   -7.2138829    5.8193617  0.004712797 0.0050556702          828    5.8781071    823.61043    1.0490397 
  103000   0.76869214   -7.1849297    5.7887552 0.0046834588 0.0050535303          828    5.9617525    823.78322    1.0488196 
  103100   0.75541991   -7.2577324     5.802614  0.004690118 0.0050513277          813     6.044656    818.48768    1.0556054 
  103200   0.74944604   -7.2346917    5.8500665 0.0047238908 0.0050492503          820    5.3749568    828.07201    1.0433875 
  103300   0.75602044   -7.2372577    5.8689359 0.0047345401 0.0050472858          830    5.3364751     828.0338    1.0434357 
  103400   0.74102343    -7.231716    5.8438932 0.0047097785 0.0050452885          828    5.6218554    824.74051    1.0476022 
  103500   0.75118505   -7.2276538    5.8659845 0.0047230149 0.0050432632          811    5.4940306    826.42939    1.0454614 
  103600   0.74797789   -7.1578131     5.840957 0.0046983244 0.0050412104          831    5.9270534    825.77916    1.0462846 
  103700   0.72726261   -7.2070519    5.8150684 0.0046729897 0.0050390082          844    5.9466325    822.57522    1.0503599 
  103800   0.74713615   -7.2322778    5.8142591 0.0046678381 0.0050367659          836    5.8160105    822.49429    1.0504632 
  103900   0.75920349   -7.2324082    5.8653097 0.0047042907 0.0050346002          837    5.2166295    829.43202    1.0416767 
  104000    0.7370987   -7.2539893    5.8893347 0.0047190182 0.0050325218          843    5.0462074    830.19916    1.0407141 
Loop time of 191.991 on 12 procs for 100000 steps with 864 atoms

Performance: 90004.344 tau/day, 520.858 timesteps/s
99.4% CPU use with 12 MPI tasks x no OpenMP threads

MPI task timing breakdown:
Section |  min time  |  avg time  |  max time  |%varavg| %total
---------------------------------------------------------------
Pair    | 9.624      | 10.482     | 11.242     |  17.0 |  5.46
Neigh   | 1.0045     | 1.0372     | 1.079      |   2.3 |  0.54
Comm    | 7.3553     | 8.1823     | 9.0636     |  20.7 |  4.26
Output  | 2.1271     | 2.128      | 2.1355     |   0.2 |  1.11
Modify  | 167.87     | 168.3      | 168.54     |   1.5 | 87.66
Other   |            | 1.858      |            |       |  0.97

Nlocal:        72.0000 ave          76 max          68 min
Histogram: 1 1 1 1 0 3 2 2 0 1
Nghost:        1618.25 ave        1629 max        1608 min
Histogram: 1 1 1 4 0 1 1 0 1 2
Neighs:        8628.92 ave        9481 max        7558 min
Histogram: 1 1 1 2 0 1 2 0 1 3
FullNghs:      17253.4 ave       18162 max       16276 min
Histogram: 1 2 0 1 1 2 1 1 2 1

Total # of neighbors = 207041
Ave neighs/atom = 239.63079
Neighbor list builds = 4811
Dangerous builds = 0

#clear
#
#next RN
#
#jump SELF



Total wall time: 0:03:12
