
units lj                  # Use reduced LJ style units
atom_style atomic         # Uncharged point particles
atom_modify map hash      # Needed for indexing of clusters etc
                          # Used to be able to find where atoms are in relation to each other.

# Define a lattice with which to populate the simulation cell. With units
# set to 'lj' the second argument to the lattice command is the reduced
# density rho* and the spacings are multiples of that required to acheive
# that density. Also define a simulation cell called 'box' in lattice units
# and fill it with atoms. Here we're creating a box which is ten lattice
# constants in each direction.
lattice fcc 1.0 spacing 1 1 1                 # All equal sizes - gives the right reduced density.
Lattice spacing in x,y,z = 1.5874011 1.5874011 1.5874011

region box block 0 6 0 6 0 6 units lattice # Defines a region, "box", in lattice units
create_box 1 box                              # Creates a simulation box as specified above,
Created orthogonal box = (0.0000000 0.0000000 0.0000000) to (9.5244063 9.5244063 9.5244063)
  2 by 2 by 3 MPI processor grid
                                              # with one type of atom
create_atoms 1 box                            # Creates particles on lattice points
Created 864 atoms
  using lattice units in orthogonal box = (0.0000000 0.0000000 0.0000000) to (9.5244063 9.5244063 9.5244063)
  create_atoms CPU = 0.001 seconds


# Set the mass of the first (and only) atom type.
mass 1 1.0

# Lennard-Jones interactions between particles, 3.5 sigma cut-off. Apply
# long range tail corrections to energy and pressure and set all coefficients
# to unity since we work in reduced units here. Note that this doesn't shift
# the potential such that it goes to zero at the cutoff. That would require
# pair_modify('shift', 'yes').
pair_style lj/cut  3.5      # non-GPU version
pair_modify tail  yes
pair_coeff 1  1  1.0  1.0   # Intearaction between 1 and 1 set with epsilon = 1 and sigma = 1

write_data data.*
System init for write_data ...
Neighbor list info ...
  update every 1 steps, delay 10 steps, check yes
  max neighbors/atom: 2000, page size: 100000
  master list distance cutoff = 3.8
  ghost atom cutoff = 3.8
  binsize = 1.9, bins = 6 6 6
  1 neighbor lists, perpetual/occasional/extra = 1 0 0
  (1) pair lj/cut, perpetual
      attributes: half, newton on
      pair build: half/bin/atomonly/newton
      stencil: half/bin/3d
      bin: standard

#############################
#   M E L T   S Y S T E M   #
#############################

velocity all create 2.4 2750902 mom yes dist gaussian # Assign velocities
                                                    # Temperature 2.4, random number seed, zero linear momentum
						                                                        # Gaussian distribution

timestep 0.002   # simulation timestep
thermo 100       # output thermodynamic data every 100 steps

# Define a fix  in this case with index 1 applied to all
# particles in the simulation. This fix is for simulations
# in the anisotropic NPT ensemble. Note that we use the MTK
# correction.
fix 1 all npt temp 2.4 2.4 0.1 iso 5.68 5.68 0.5 mtk yes tchain 5 pchain 5 # Use NPT ensemble
                                                                         # Set temperature and pressure and damping
                                                                         # Numbers of thermostats in chain and in barostat
run 1000         # run for 10000 steps
Per MPI rank memory allocation (min/avg/max) = 3.633 | 3.633 | 3.634 Mbytes
Step Temp E_pair E_mol TotEng Press Volume 
       0          2.4   -8.3859253            0    -4.790092     -2.24275          864 
     100    1.3007594   -6.4407842            0   -4.4919034    5.3582762    891.69205 
     200    1.5828213   -6.0796178            0   -3.7081338    6.4338598    907.46239 
     300    1.7629056     -5.73851            0   -3.0972122    5.5953229    954.02439 
     400    1.8733232   -5.2785237            0   -2.4717912    6.0585808    994.36537 
     500      2.02574   -4.9360708            0   -1.9009777    5.7478153    1042.8978 
     600    2.2112838   -4.6895875            0   -1.3765009    5.7138268    1079.0368 
     700    2.3146746   -4.4629638            0  -0.99497044    5.6088298    1118.0222 
     800    2.4734008     -4.39503            0   -0.6892229    5.7937797    1123.7282 
     900    2.4206618   -4.2767239            0  -0.64993368    5.5531987    1146.9555 
    1000    2.3618098   -4.2459295            0  -0.70731524    5.7000582    1143.3852 
Loop time of 0.196816 on 12 procs for 1000 steps with 864 atoms

Performance: 877977.351 tau/day, 5080.887 timesteps/s
99.8% CPU use with 12 MPI tasks x no OpenMP threads

MPI task timing breakdown:
Section |  min time  |  avg time  |  max time  |%varavg| %total
---------------------------------------------------------------
Pair    | 0.070669   | 0.079029   | 0.096228   |   2.9 | 40.15
Neigh   | 0.012101   | 0.013371   | 0.015404   |   1.0 |  6.79
Comm    | 0.066316   | 0.086165   | 0.095961   |   3.3 | 43.78
Output  | 0.00019985 | 0.00020831 | 0.0002795  |   0.0 |  0.11
Modify  | 0.015949   | 0.016356   | 0.01686    |   0.2 |  8.31
Other   |            | 0.001688   |            |       |  0.86

Nlocal:        72.0000 ave          80 max          66 min
Histogram: 2 1 2 2 1 0 2 0 0 2
Nghost:        1314.75 ave        1327 max        1295 min
Histogram: 1 0 0 2 3 0 0 1 2 3
Neighs:        6211.67 ave        7136 max        5326 min
Histogram: 2 0 0 2 1 4 1 0 0 2

Total # of neighbors = 74540
Ave neighs/atom = 86.273148
Neighbor list builds = 80
Dangerous builds = 2

# Equilibrate just above the melting temperature to avoid step fn in T

fix 1 all npt temp 1.25 1.25 0.1 iso 5.68 5.68 0.5 mtk yes tchain 5 pchain 5
run 1000
Per MPI rank memory allocation (min/avg/max) = 3.634 | 3.634 | 3.634 Mbytes
Step Temp E_pair E_mol TotEng Press Volume 
    1000    2.3618098   -4.2459295            0  -0.70731524    5.7000582    1143.3852 
    1100    1.8617945   -4.5967525            0    -1.807293    5.9593679    1083.5566 
    1200      1.66126   -5.0091582            0   -2.5201524    5.9308167    1028.0056 
    1300    1.4533368   -5.3154554            0   -3.1379734    5.5185254    997.93023 
    1400    1.3100587   -5.5224566            0    -3.559643    5.2858775     978.0358 
    1500    1.3306301   -5.7450087            0   -3.7513736    5.2687861    956.68836 
    1600    1.2302857    -5.777427            0   -3.9341343     5.385203    950.58576 
    1700    1.2545134   -5.8251615            0   -3.9455694    5.6370291    940.07281 
    1800    1.2669685   -5.8434457            0   -3.9451925    6.1076728    931.13358 
    1900    1.2975362   -5.8185374            0   -3.8744858    5.5765884    942.23221 
    2000    1.2225624   -5.8503078            0   -4.0185867    5.1330896    948.19804 
Loop time of 0.170783 on 12 procs for 1000 steps with 864 atoms

Performance: 1011813.157 tau/day, 5855.400 timesteps/s
99.9% CPU use with 12 MPI tasks x no OpenMP threads

MPI task timing breakdown:
Section |  min time  |  avg time  |  max time  |%varavg| %total
---------------------------------------------------------------
Pair    | 0.070396   | 0.077475   | 0.089752   |   2.1 | 45.36
Neigh   | 0.0097826  | 0.010833   | 0.012706   |   0.8 |  6.34
Comm    | 0.050928   | 0.064722   | 0.072393   |   2.5 | 37.90
Output  | 0.00019783 | 0.00020522 | 0.00025628 |   0.0 |  0.12
Modify  | 0.014954   | 0.015657   | 0.016303   |   0.3 |  9.17
Other   |            | 0.00189    |            |       |  1.11

Nlocal:        72.0000 ave          79 max          65 min
Histogram: 1 1 0 4 0 1 1 3 0 1
Nghost:        1466.08 ave        1476 max        1447 min
Histogram: 1 1 0 0 2 0 0 4 1 3
Neighs:        7466.67 ave        8131 max        6694 min
Histogram: 1 0 2 0 3 1 3 0 0 2

Total # of neighbors = 89600
Ave neighs/atom = 103.70370
Neighbor list builds = 67
Dangerous builds = 0


# Small amount of linear quench

fix 1 all npt temp 1.25 ${temp} 0.1 iso 5.68 5.68 0.5 mtk yes tchain 5 pchain 5
fix 1 all npt temp 1.25 0.85 0.1 iso 5.68 5.68 0.5 mtk yes tchain 5 pchain 5
run 2000
Per MPI rank memory allocation (min/avg/max) = 3.634 | 3.634 | 3.634 Mbytes
Step Temp E_pair E_mol TotEng Press Volume 
    2000    1.2225624   -5.8503078            0   -4.0185867    5.1330896    948.19804 
    2100     1.251309   -5.8628121            0    -3.988021    5.4133305    941.34591 
    2200    1.2256982   -5.9082258            0   -4.0718065    5.8071332    929.20787 
    2300    1.1765861   -5.9215888            0   -4.1587523    6.2933952    919.23424 
    2400     1.175843   -5.9768434            0   -4.2151203    5.8973496    921.06424 
    2500     1.126669    -5.984143            0   -4.2960954    5.7570854    920.86548 
    2600    1.1070716   -6.0429854            0      -4.3843    5.5732009    918.88596 
    2700    1.1077018   -6.0481779            0   -4.3885483    5.5633827    918.91355 
    2800     1.088144   -6.1277082            0   -4.4973813    5.5884593    911.90549 
    2900    1.0802153    -6.128461            0   -4.5100135    5.5896101    911.52208 
    3000    1.0193008   -6.1206399            0   -4.5934583    5.8145968    907.14462 
    3100     1.047732   -6.1897961            0   -4.6200171    5.6757669    904.71932 
    3200    1.0005246   -6.2540139            0    -4.754964    5.6119409    899.98745 
    3300   0.98085398   -6.2800719            0   -4.8104938    5.5505882    898.01037 
    3400   0.94514426   -6.3320582            0   -4.9159827    6.0734391    885.27012 
    3500   0.96409256   -6.3155656            0   -4.8711006    6.2159116    884.84299 
    3600   0.98534368   -6.2665189            0   -4.7902141    6.1409519    891.18928 
    3700   0.97025621   -6.3595501            0   -4.9058502    5.9247444    885.55623 
    3800    0.9062313   -6.4085888            0   -5.0508151    5.9431784    881.46666 
    3900   0.84202167   -6.3999948            0   -5.1384242    5.8030141    882.66832 
    4000   0.87220277   -6.4264888            0   -5.1196989    5.7559979     881.9086 
Loop time of 0.36611 on 12 procs for 2000 steps with 864 atoms

Performance: 943979.301 tau/day, 5462.843 timesteps/s
99.8% CPU use with 12 MPI tasks x no OpenMP threads

MPI task timing breakdown:
Section |  min time  |  avg time  |  max time  |%varavg| %total
---------------------------------------------------------------
Pair    | 0.15839    | 0.17239    | 0.20641    |   3.2 | 47.09
Neigh   | 0.017101   | 0.018617   | 0.022136   |   1.0 |  5.09
Comm    | 0.10295    | 0.14004    | 0.15484    |   3.9 | 38.25
Output  | 0.0004033  | 0.0004176  | 0.00051828 |   0.0 |  0.11
Modify  | 0.028839   | 0.030087   | 0.031237   |   0.4 |  8.22
Other   |            | 0.004554   |            |       |  1.24

Nlocal:        72.0000 ave          75 max          68 min
Histogram: 2 0 1 0 1 2 0 2 3 1
Nghost:        1544.58 ave        1552 max        1533 min
Histogram: 1 0 0 1 0 4 2 2 0 2
Neighs:        8067.00 ave        8654 max        7576 min
Histogram: 3 1 0 1 2 2 0 0 0 3

Total # of neighbors = 96804
Ave neighs/atom = 112.04167
Neighbor list builds = 111
Dangerous builds = 0

#############################
# F R E E Z E  S Y S T E M  #
#############################

# Define solid atoms. This closely follows ten Wolde  Ruiz-Montero and Frenkel  Faraday Discuss  1996  104  93-110
# Compute components of the per-atom q6 vector
compute q6 all orientorder/atom degrees 1 6 components 6 nnn NULL cutoff 1.3 # compute the Q6 parameter.
                                                                             # Use all neighbours within 1.3 unit cell.

# get number of connections
compute coord_number all coord/atom orientorder q6 0.5

# An atom is solid if it has 8 or more connections (of a possible 14)
variable is_solid atom c_coord_number>=8
group solid dynamic all var is_solid    # Must be dynamic to update
dynamic group solid defined

# do clustering
compute cluster solid cluster/atom 1.3 # Create a cluster where all atoms within are solid and max 1.3 units from another member

# define chunks one chunk per cluster
compute clus_chunks solid chunk/atom c_cluster nchunk every compress yes  # Says which atoms are in which chunk

# count the size of each chunk
compute size_chunks solid property/chunk clus_chunks count


# Find the maximum entry in the vector of chunk sizes
variable max_n equal max(c_size_chunks)


# Thermo style which includes this variable
# thermo_style custom step temp pe vol v_max_n

thermo ${N}  # Print the thermo information every 100 steps
thermo 100  

# Reset the npt fix at a lower temperature (below freezing)

compute myRDF all rdf 100
fix 2 all ave/time 1 50 100 c_myRDF[*] file pcf.rdf mode vector


compute msd all msd com yes
variable twopoint equal c_msd[4]/6/(step*dt+1.0e-6)
fix 9 all vector 10 c_msd[4]
variable fit equal slope(f_9)/6/(10*dt)
thermo_style custom step temp pe c_msd[4] v_twopoint v_fit v_max_n press vol density


fix 1  all npt temp  ${temp} ${temp}  0.1  iso  5.68  5.68  0.5  mtk yes tchain  5  pchain  5
fix 1  all npt temp  0.85 ${temp}  0.1  iso  5.68  5.68  0.5  mtk yes tchain  5  pchain  5
fix 1  all npt temp  0.85 0.85  0.1  iso  5.68  5.68  0.5  mtk yes tchain  5  pchain  5

dump dmp2 all dcd ${N} traj.dcd
dump dmp2 all dcd 100 traj.dcd
dump dmp3 all dcd ${N} traj_unwrap.dcd
dump dmp3 all dcd 100 traj_unwrap.dcd
dump_modify dmp3 unwrap yes


# fix rnuntil all halt ${N} v_max_n >= 3980 error soft message no   # Stop when solidified

run 100000 # 5000000  # Run for this many steps
Neighbor list info ...
  update every 1 steps, delay 10 steps, check yes
  max neighbors/atom: 2000, page size: 100000
  master list distance cutoff = 3.8
  ghost atom cutoff = 3.8
  binsize = 1.9, bins = 6 6 6
  5 neighbor lists, perpetual/occasional/extra = 1 4 0
  (1) pair lj/cut, perpetual
      attributes: half, newton on
      pair build: half/bin/atomonly/newton
      stencil: half/bin/3d
      bin: standard
  (2) compute orientorder/atom, occasional
      attributes: full, newton on
      pair build: full/bin/atomonly
      stencil: full/bin/3d
      bin: standard
  (3) compute coord/atom, occasional
      attributes: full, newton on
      pair build: full/bin/atomonly
      stencil: full/bin/3d
      bin: standard
  (4) compute cluster/atom, occasional
      attributes: full, newton on
      pair build: full/bin/atomonly
      stencil: full/bin/3d
      bin: standard
  (5) compute rdf, occasional, copy from (1)
      attributes: half, newton on
      pair build: copy
      stencil: none
      bin: none
Per MPI rank memory allocation (min/avg/max) = 9.699 | 9.701 | 9.702 Mbytes
Step Temp PotEng c_msd[4] v_twopoint v_fit v_max_n Press Volume Density 
    4000   0.87220277   -6.4264888 1.582287e-30 3.2964308e-32 8.3333333e+20            6    5.7559979     881.9086   0.97969336 
    4100   0.86326961   -6.5257799  0.041012402 0.0008335853  0.037424842            5    5.3532989    880.58629   0.98116449 
    4200    0.8341622   -6.4906901  0.071394449 0.0014165564   0.03117631            6    5.6389365    877.83564   0.98423892 
    4300    0.8942133    -6.498965  0.091391072 0.0017711446  0.026180468            3    5.3482233    883.31579   0.97813263 
    4400   0.85201988   -6.5142935   0.11180351 0.0021174905  0.022737123            1     5.158249    883.29826   0.97815204 
    4500    0.8385547   -6.5366006   0.13270204 0.0024574449  0.021030194            3    5.3459102    878.59019   0.98339363 
    4600   0.89978761   -6.4867453    0.1508849 0.0027334218  0.019831767            5    5.8126849    875.75971   0.98657199 
    4700   0.87301856    -6.497252   0.16885628 0.0029939053  0.019000257           10     6.092098    871.24259   0.99168706 
    4800   0.84706084    -6.523345   0.19219718 0.0033367563  0.018320329            4    6.0519743    869.46243   0.99371746 
    4900    0.8505713   -6.5084033   0.20676436 0.0035164004  0.018060568            2    5.8972246    872.64883   0.99008899 
    5000   0.85234296   -6.4946605     0.222202 0.0037033663  0.017516119            8    5.9750617    872.96563   0.98972969 
    5100   0.84423507   -6.5184687   0.23707191 0.0038737237  0.016978634            4     5.762042    874.67263   0.98779815 
    5200   0.87098509   -6.4868934   0.25094082 0.0040214871  0.016477233            6    5.8485105    875.44904   0.98692209 
    5300   0.84115187   -6.5282113   0.26658074 0.0041915207  0.016065875            6    5.5706936    876.28528   0.98598027 
    5400   0.84449454   -6.5948358   0.28216996 0.0043544744  0.015690178            2    5.3594234    873.60439   0.98900602 
    5500   0.88479028   -6.5513483   0.29517587 0.0044723612  0.015391744            5    5.4147455    877.59274   0.98451133 
    5600    0.8662033   -6.5108657   0.30502592 0.0045390758  0.015030609           10    6.0529383    871.00865    0.9919534 
    5700   0.84174103   -6.5378565   0.32349192 0.0047294136  0.014710119            7    6.0480091    868.84605   0.99442243 
    5800   0.89327293   -6.5173529   0.34279423  0.004925204  0.014529763           11    6.1296429    869.93156   0.99318158 
    5900   0.87641864   -6.5176343   0.36101959 0.0050991463  0.014413162            5    6.1875208    868.93626   0.99431919 
    6000   0.86296872   -6.5968435   0.37785281 0.0052479553  0.014355618            4    5.8315969    867.36289   0.99612285 
    6100   0.86894129   -6.5534446   0.38108218 0.0052060403  0.014215868            3    5.7856888    871.45106   0.99144982 
    6200   0.83314404   -6.5573895   0.39275064  0.005278906  0.014008719            5    5.5705822    873.43164   0.98920162 
    6300   0.83639147   -6.5421331   0.39936416 0.0052825943   0.01376459            5    5.6704477    872.99761   0.98969343 
    6400    0.8546088   -6.5189424   0.42611707 0.0055483989  0.013595482            3    5.6961451    875.18355   0.98722148 
    6500   0.79933682   -6.5349023   0.43854897 0.0056224223  0.013485695            3    5.6505967    873.58614   0.98902668 
    6600   0.85238127   -6.5713135   0.44425404 0.0056092677  0.013339568            6    5.5763455    873.35034   0.98929371 
    6700   0.90121909   -6.5597379   0.46244943 0.0057518582  0.013214091            7    5.4355306    875.64955   0.98669611 
    6800   0.81870155   -6.5533813   0.48173994 0.0059036753  0.013134851            3     5.662702    872.08707   0.99072676 
    6900   0.85126821   -6.5830392   0.49625028 0.0059933604  0.013070987            2    5.6305863    871.03981   0.99191793 
    7000   0.83800499   -6.5343957   0.51033633 0.0060754321   0.01299812            6    5.6040459    874.78723   0.98766873 
    7100   0.85993628   -6.5123738   0.53361457 0.0062630814  0.012968324            3    5.7442656    874.66895    0.9878023 
    7200   0.82872179   -6.4903674     0.562225 0.0065072333  0.012997237            5    6.0187418     871.7172   0.99114713 
    7300   0.84777461   -6.5747982   0.58752014 0.0067068504  0.013067129            6    5.3361564    875.53102   0.98682969 
    7400   0.86219362   -6.5293567   0.59470663 0.0066971463  0.013125578            7    5.5337464    876.13477   0.98614965 
    7500   0.82720831   -6.5748013   0.60678645 0.0067420712   0.01314806            3    5.4397538    873.72998   0.98886386 
    7600   0.84034513   -6.6005321   0.60938856 0.0066818916  0.013134371           11    5.5678691    870.78534    0.9922078 
    7700   0.86981554   -6.6197096    0.6296064 0.0068139216  0.013101811           10    5.1590802    875.62529   0.98672344 
    7800   0.88152779   -6.6119199   0.64381979 0.0068784162  0.013088628           14      5.13425    876.27248   0.98599468 
    7900   0.81306815   -6.5790158   0.64485926 0.0068023125  0.013041475            7    5.4973181    872.48448   0.99027549 
    8000    0.8586712    -6.530237     0.648156 0.0067516246  0.012972133           11    5.9334635    871.46548   0.99143341 
    8100   0.81334649   -6.4864939   0.64832418 0.0066700015  0.012864305           13    6.2704443    868.82303   0.99444878 
    8200   0.82555332   -6.5618344   0.65410195 0.0066473771  0.012735429            6    5.8208279     869.5918   0.99356963 
    8300   0.86111128   -6.5620237   0.67696542 0.0067968412  0.012622838            2    5.6777413    872.21284    0.9905839 
    8400    0.8619288   -6.4689812    0.6899862 0.0068451008   0.01253767            2    6.1095318    873.28093   0.98937234 
    8500   0.84466307   -6.4484929   0.72735493 0.0071309302  0.012487235            5    5.6819585     880.2978   0.98148604 
    8600   0.84717605   -6.5229954   0.73533998  0.007125387  0.012464522            4    5.3195019    880.85317   0.98086722 
    8700   0.83390178    -6.574953   0.73546496 0.0070446831  0.012406848            5    5.0233543    880.86339   0.98085584 
    8800   0.85466591   -6.5007629   0.76066489 0.0072032656   0.01235529           10    5.5494384    879.14925   0.98276829 
    8900   0.86583232   -6.5181413   0.77490643 0.0072556777  0.012328307            4    5.6341477    876.14535   0.98613775 
    9000   0.83988955   -6.5293517   0.80063918 0.0074133253  0.012302181            4    5.9778345    870.14294   0.99294031 
    9100   0.84848682   -6.5357022   0.82556121 0.0075600839  0.012310873            6    5.6561566    874.27168   0.98825116 
    9200   0.81490827   -6.5461651   0.85951991  0.007785506   0.01234381            2    5.3640391    877.93052   0.98413255 
    9300   0.81831639   -6.5055493   0.86375301 0.0077397219  0.012367729            7    5.3779486    880.36148   0.98141505 
    9400   0.84013401    -6.477447   0.88791891 0.0078716211  0.012397023            6    5.5766606    879.70267   0.98215003 
    9500   0.85672762   -6.5429315   0.91358162 0.0080138734   0.01244233            4    5.5026289    876.37232   0.98588235 
    9600   0.84657264   -6.5364252   0.93439378 0.0081110567  0.012494557            3    5.6373802    874.79974   0.98765461 
    9700   0.91821759   -6.5350281    0.9354606 0.0080366027  0.012536398            3    5.7039995    874.55063   0.98793595 
    9800   0.86036519   -6.4958993   0.96629861 0.0082168245  0.012576299            4    5.9970539    872.61115   0.99013174 
    9900   0.85218512   -6.5453876   0.97771771 0.0082299467  0.012620437            6    5.9732892    868.98538   0.99426299 
   10000    0.8372733   -6.6025051   0.99458136 0.0082881776  0.012658295            4    5.9510153    864.82599    0.9990449 
   10100    0.8523653   -6.5561495    1.0096077  0.008330096  0.012691349            6    5.8869226    868.86619   0.99439938 
   10200   0.84104266   -6.5591861    1.0248993 0.0083733598  0.012723897            3    5.6275364    872.47233   0.99028928 
   10300   0.88650972   -6.5562615    1.0495045 0.0084911363  0.012754449            6    5.2756549    877.72838   0.98435919 
   10400   0.88562266   -6.5777931    1.0585194 0.0084817254  0.012787992            2    5.4430645    874.28701   0.98823383 
   10500    0.8332453   -6.5206835    1.0625668 0.0084330695  0.012802584            3    6.1044874    868.48044   0.99484106 
   10600   0.85845292   -6.5460098    1.0826511 0.0085114078  0.012823668            9    5.9858407    868.81877   0.99445365 
   10700   0.84772599   -6.5756999    1.0876559 0.0084708397  0.012828739            9    5.6418397    871.25561   0.99167223 
   10800    0.8545026   -6.5741567    1.1016085 0.0085000654  0.012836301            5    5.5683806     872.2944   0.99049128 
   10900   0.84139463   -6.5122995    1.1226596  0.008583024  0.012838006           14    5.4643641    878.70196   0.98326855 
   11000   0.86966351   -6.5531688    1.1403669 0.0086391428  0.012845078            2    5.1752485    879.92891    0.9818975 
   11100   0.80982393   -6.5492023    1.1557684 0.0086769395  0.012849103            6    5.4160838    876.38578   0.98586721 
   11200    0.8718462   -6.5365195    1.1655312 0.0086721071  0.012848333            3    5.3242967    879.27865   0.98262366 
   11300   0.81608207   -6.5134653    1.1782065 0.0086888381  0.012849971           14    5.4722667    877.99117   0.98406456 
   11400   0.85161058   -6.5434969     1.188577 0.0086884283  0.012842701            8    5.3038814    878.53702   0.98345315 
   11500   0.87565272   -6.5009005    1.2135933 0.0087941542  0.012840556            7     5.604501     878.4769   0.98352045 
   11600   0.85996407   -6.5086027    1.2177053 0.0087478825  0.012841909            3    6.0419594     871.1886   0.99174851 
   11700   0.87375616   -6.5832773    1.2320694  0.008775423   0.01283632            9    5.5545987    872.52482   0.99022971 
   11800   0.82221558   -6.5189172    1.2483835 0.0088162675  0.012834318            7    6.0749959     869.1413   0.99408462 
   11900   0.89163504   -6.5639203    1.2747083 0.0089265284  0.012831082            4     5.488601    875.94058   0.98636828 
   12000   0.84036618   -6.4774711    1.2970777 0.0090074834  0.012838748            2    5.8491965    876.26428   0.98600391 
   12100   0.90832407   -6.5237703     1.313717 0.0090476377   0.01284896            4     5.556247    877.30765   0.98483126 
   12200   0.79484876   -6.4651061    1.3273323 0.0090664774  0.012856476            5    5.8034796    876.45905   0.98578479 
   12300   0.86250645   -6.5058975    1.3408545 0.0090843795  0.012861601            4    5.3645252    880.80168   0.98092456 
   12400   0.82539258   -6.5474092     1.370274 0.0092088304  0.012869384            4    4.9706233    883.35722   0.97808676 
   12500   0.79122786   -6.5295316    1.3806216 0.0092041435   0.01287857            6    5.6514508    874.44524   0.98805501 
   12600   0.84718024   -6.5720162     1.394481 0.0092227577  0.012887268            7    5.3544946     875.8909   0.98642423 
   12700   0.86012826   -6.5326743    1.3887029 0.0091122236  0.012886987           13    5.7766666     873.5826   0.98903069 
   12800   0.85516963   -6.5281651     1.399953 0.0091142768  0.012881468            7    5.7444026    873.81967   0.98876236 
   12900   0.83773876   -6.5580223    1.3905298 0.0089827506  0.012866632           15    5.8791839    869.23089   0.99398216 
   13000   0.80504927   -6.5953973       1.4086 0.0090294871  0.012844549            7    5.3374132    874.02051   0.98853516 
   13100   0.84766769   -6.5771277    1.4273122 0.0090795935   0.01282364            6    5.2927638    876.12368   0.98616214 
   13200   0.79878044   -6.5304375    1.4405741 0.0090945331  0.012804923            5    5.4458579    877.68973   0.98440254 
   13300   0.84722566   -6.5155552    1.4538187 0.0091091397   0.01278576            3     5.311009    881.33694   0.98032881 
   13400   0.85031106   -6.5218714    1.4619711 0.0090918594  0.012766238            3    5.6188875    875.76791   0.98656275 
   13500   0.84718827   -6.5175307    1.4791813 0.0091307482  0.012749149            9     5.577532    876.44119   0.98580488 
   13600   0.85004442   -6.4894462    1.4778833 0.0090556573  0.012727952            5    5.9300884    873.93028   0.98863722 
   13700   0.84904433   -6.5568996    1.4819554 0.0090143269  0.012698953            3    5.6912888    872.51106   0.99024533 
   13800   0.86661824   -6.5347525    1.5247746 0.0092075756  0.012677752            4    5.5467847    876.67367   0.98554346 
   13900   0.84846716    -6.557761    1.5621558 0.0093654423  0.012670798            2    5.2409547    879.04369    0.9828863 
   14000    0.8539762   -6.5192115    1.5780738 0.0093932959  0.012668092            4    5.9401173    871.67757   0.99119219 
   14100   0.89490855   -6.4605588    1.5939452 0.0094204795  0.012672366            5    6.3403894    871.22054   0.99171216 
   14200   0.89007869   -6.5225913    1.5846994  0.009299879  0.012668961            8    6.0119243    870.29242   0.99276977 
   14300   0.86289488   -6.5552873    1.5961942 0.0093018308  0.012656196           16     5.811274    870.98241   0.99198329 
   14400   0.90428738   -6.5167377     1.613916 0.0093397914  0.012644904            9    5.8086494    874.21558   0.98831458 
   14500   0.86605945     -6.49193    1.6435924 0.0094459333  0.012640005            7    5.9492904    873.72136   0.98887362 
   14600   0.83107665   -6.5140621    1.6588467  0.009468303  0.012637017            4    5.7481715    874.58937   0.98789218 
   14700     0.874676   -6.5620485    1.6887507 0.0095734164  0.012635612           10    5.4436162    875.28173   0.98711074 
   14800   0.80494744   -6.5263678    1.7195675 0.0096822493  0.012641046           12    5.9224867    870.68162   0.99232599 
   14900   0.86017659   -6.5457525    1.7315243 0.0096841403  0.012649661           21    5.7328164    872.06948   0.99074674 
   15000   0.81842725   -6.5982002     1.742573 0.0096809606  0.012656265           27    5.5392172    870.51179   0.99251958 
   15100   0.80039906   -6.5403207    1.7482723 0.0096483013  0.012658056           11     5.663428    873.23367   0.98942589 
   15200   0.84796461    -6.558174    1.7715892   0.00971266  0.012658204            8    5.3605064     877.5852   0.98451979 
   15300   0.84783723   -6.5358746    1.7683519 0.0096315458  0.012657651            4    5.4977132    876.58496    0.9856432 
   15400    0.8196278   -6.5486749    1.7563645 0.0095041368  0.012646654           17    5.6679031    873.08624   0.98959297 
   15500   0.82943352   -6.5403958    1.7477085 0.0093962818  0.012629529            8    5.9128813    869.33783   0.99385989 
   15600   0.86276475   -6.5159955    1.7646588 0.0094265959  0.012609153           27    5.5974583    876.56428   0.98566645 
   15700   0.87230624   -6.5530865    1.7829574 0.0094636804  0.012589733           23    5.5727247    874.09484   0.98845109 
   15800   0.82139601   -6.5602406    1.7766769 0.0093706584  0.012568517           31    5.8179508    868.99911   0.99424728 
   15900   0.84526131   -6.5205215    1.8062693 0.0094668199  0.012549078           16    5.7574066    873.87302     0.988702 
   16000   0.86476611   -6.5445021    1.8096331 0.0094251719  0.012530501           12    5.7552464     872.9397   0.98975909 
   16100   0.83454478   -6.5245731    1.8323138 0.0094840258  0.012512153            9    5.9049287    870.79697   0.99219454 
   16200   0.88330661   -6.5308483    1.8707034 0.0096229597  0.012500093            4    5.3845973    879.47038   0.98240944 
   16300   0.83539381   -6.5434884    1.8981148  0.009704063  0.012491593            3    5.1781945    880.85584   0.98086425 
   16400   0.87420441   -6.5536025     1.901161 0.0096603706  0.012482322            4    5.4018766    877.16155   0.98499529 
   16500   0.85696307   -6.5547079    1.9242668 0.0097185187  0.012476784            9    5.8586107     870.4572   0.99258183 
   16600   0.81764801   -6.5608631    1.9384068 0.0097309573  0.012472434            4    5.8495851    869.60394   0.99355575 
   16700    0.8497241   -6.4923413    1.9690262 0.0098254797  0.012470283            6    5.7994504    875.74668   0.98658667 
   16800   0.88412378   -6.5130195    1.9908753 0.0098753734  0.012473354            8    5.7477942    875.66804   0.98667527 
   16900   0.84869212   -6.5397969    1.9973571 0.0098489006  0.012474266            8    5.9584384    870.17808   0.99290021 
   17000    0.8858763   -6.5387625    2.0139217  0.009872165  0.012476292            6    5.9876787    869.71009   0.99343449 
   17100   0.83511823   -6.5419149    2.0190451  0.009839401  0.012475082            6    6.1007473    867.63563   0.99580973 
   17200   0.86924279    -6.542113     2.058765 0.0099746365  0.012476255            8    5.9866441    869.28278   0.99392283 
   17300    0.8820273   -6.5368108    2.0912265  0.010073345  0.012484365            4    5.7644933    873.39662   0.98924129 
   17400   0.86838422   -6.5492232    2.1052435  0.010082583  0.012494714            8    5.8845524    869.91534   0.99320009 
   17500   0.86828481   -6.6328131    2.1078183   0.01003723  0.012500063            4    5.3245746    871.97537   0.99085368 
   17600   0.81659377   -6.6309882    2.1203431  0.010039503  0.012502614            5    5.2424646     872.2575   0.99053318 
   17700   0.81983607   -6.5800161    2.1434955  0.010091786  0.012504752            6    5.5939994    871.36292   0.99155011 
   17800   0.87231344   -6.5188541    2.1337131 0.0099892933  0.012508809           13    6.4402749    864.37637   0.99956458 
   17900   0.86918219   -6.5521419    2.1500665  0.010009621  0.012511203            6    6.4071589    862.44013    1.0018087 
   18000   0.83931794   -6.6287498    2.1921148  0.010148679  0.012517188            6    5.8612768    864.90142   0.99895778 
   18100   0.85851514   -6.5771115    2.2132208  0.010189782  0.012524916            5    6.0941016     865.4958   0.99827174 
   18200   0.84889974   -6.5178899    2.2248542  0.010187061  0.012532707           10    6.0492273    870.04189   0.99305564 
   18300   0.88953835   -6.5432183    2.2619494  0.010300316  0.012542418            8    5.7416523    873.21872   0.98944283 
   18400   0.80768879   -6.5382624     2.247192    0.0101775   0.01255071            9    5.9438455    869.17415   0.99404705 
   18500   0.83912019   -6.5484025    2.2590102  0.010175721  0.012553546            3    5.7029443    872.18937   0.99061056 
   18600   0.88068557   -6.5498942    2.2909764  0.010264231  0.012558875            7    5.5991124    873.50739   0.98911584 
   18700    0.8645305   -6.5610106    2.2940467  0.010223024  0.012563978            9    5.7327781    871.28717   0.99163632 
   18800   0.82831455   -6.5450639    2.3080191  0.010230581  0.012567389            7    6.0236696    867.83852   0.99557692 
   18900   0.87324325   -6.5223899    2.3395556  0.010315501  0.012573042            6    5.7296106    874.24341   0.98828311 
   19000   0.82716944   -6.5171796    2.3704523  0.010396721  0.012581948           13    5.9140232    871.68979    0.9911783 
   19100   0.85387317   -6.5643996    2.4004996  0.010473384  0.012593834            6     5.717411    871.01341   0.99194798 
   19200   0.85969026   -6.5934557    2.4067292  0.010445873  0.012604627           20    5.5829852    870.71103   0.99229247 
   19300   0.86082571   -6.6201222     2.420115  0.010449546  0.012614397           10    5.5487318    869.78644   0.99334729 
   19400   0.86999836   -6.5369858    2.4220258  0.010403891  0.012622691            9    6.1089011    867.56179   0.99589448 
   19500   0.86634633   -6.5442539    2.4473742  0.010458864  0.012631428           10    6.3077874    865.05423   0.99878131 
   19600   0.87869005   -6.5299392    2.4554336  0.010439768   0.01264158            9    6.0373866    869.49909   0.99367557 
   19700   0.89631071   -6.5075477    2.4583312  0.010399032  0.012648481            5    5.8967829    873.50025   0.98912393 
   19800   0.88245973   -6.5844379    2.4620761  0.010362273  0.012651969            5    5.6659618    870.44882   0.99259138 
   19900   0.89748027   -6.6059653    2.4677395  0.010333917  0.012652857           10    5.7775613    868.53968   0.99477321 
   20000   0.83810531   -6.5121267     2.481139  0.010338079  0.012652809            3    6.0356336    870.72851   0.99227255 
   20100   0.88217848   -6.5483162    2.5272768   0.01047793  0.012654326            4    5.5131969    876.05173   0.98624313 
   20200   0.85837604   -6.5639601     2.557918  0.010552467  0.012661879           11    5.5186985    874.15875   0.98837883 
   20300   0.85167061   -6.4868212    2.5662036  0.010534497  0.012668964            7     5.882082    874.47135   0.98802551 
   20400   0.82458572   -6.5126968    2.5723369  0.010507912  0.012672045            9    5.4715514    878.57425   0.98341148 
   20500   0.85485297   -6.5221155    2.5819854  0.010495875  0.012674759            3    5.5136278    877.47023   0.98464879 
   20600   0.87947977   -6.6053405    2.6065294  0.010544213  0.012678236           12    5.0390674    878.38907   0.98361879 
   20700   0.81800056    -6.592095    2.6294825  0.010585678  0.012681051            5    5.4806105    871.58791   0.99129415 
   20800   0.84120336   -6.5925746    2.6545095  0.010635054  0.012687393            6    5.7632587    867.85542   0.99555754 
   20900   0.84266329   -6.5872831    2.6890657  0.010721952  0.012697314           15    6.1019467    863.93184    1.0000789 
   21000    0.8720504   -6.5908331    2.7280559  0.010825618  0.012710732           15    5.5165674     871.9668   0.99086341 
   21100   0.83294535   -6.5693312    2.7529677    0.0108727  0.012724934            3    5.5839862    872.66628    0.9900692 
   21200   0.88096186   -6.5906756    2.7401566  0.010771055  0.012737962            3    5.6545001    870.06374   0.99303069 
   21300   0.83468539   -6.5914298    2.7455815  0.010741711  0.012746578           13    5.8032593    868.10579   0.99527041 
   21400   0.85762804    -6.591439    2.7522351  0.010717426  0.012752512            6    5.4748174    872.46775   0.99029448 
   21500   0.82556504   -6.5131554    2.7968448  0.010840484  0.012759708            2    5.4942002    877.47328   0.98464536 
   21600   0.82760878   -6.4718265    2.8004009  0.010804015  0.012768785            3    5.7602805    877.30717    0.9848318 
   21700   0.85932288   -6.5814909    2.7868389  0.010702146  0.012774974            4    5.7026019    869.88366   0.99323627 
   21800   0.81600853   -6.5804606     2.812971  0.010752947  0.012778863            8    5.7229346    869.72766   0.99341442 
   21900   0.87278035   -6.5474601    2.8388369  0.010802271  0.012785846            4    5.6705173    873.49083    0.9891346 
   22000   0.86110526   -6.5118699     2.837045  0.010746382  0.012792018           10    5.8153488    873.29321   0.98935843 
   22100   0.86661644   -6.5726433    2.8179795  0.010625865  0.012794287            9    6.0782896    866.21995   0.99743719 
   22200   0.87827303   -6.5695736    2.8320518  0.010630825  0.012794296            5    6.0643547    866.26605   0.99738412 
   22300   0.87230585   -6.5434576    2.8572829   0.01067744  0.012794684            4    6.0152347    868.97493   0.99427495 
   22400   0.87109643   -6.5570645    2.8960239  0.010773898  0.012797081            2     5.610352    874.09834   0.98844713 
   22500   0.83171364   -6.5449153    2.9106696  0.010780257  0.012800223            3    5.5636802    874.60501   0.98787451 
   22600   0.84469104   -6.5880339     2.926021  0.010789163  0.012802886            5    5.5827789    871.44151   0.99146069 
   22700   0.87068122   -6.5726818     2.963183  0.010878058  0.012806907           10    5.3399047    876.55469   0.98567724 
   22800   0.83647507   -6.4976369    2.9877211  0.010920033   0.01281365            4    5.8770366     874.0254   0.98852962 
   22900   0.82609253    -6.585243    3.0014659  0.010922365  0.012819464            5      5.63332     870.1245   0.99296135 
   23000   0.85887819   -6.5744358    3.0236683   0.01095532  0.012826613            3    5.4298068    874.93292   0.98750428 
   23100   0.87275335   -6.5680536    3.0582911  0.011032796  0.012834825            3    5.5313442    874.28316   0.98823819 
   23200   0.82793931   -6.6015572    3.0847741  0.011080366  0.012843785            1    5.2985541    874.07429   0.98847433 
   23300   0.80536888    -6.536524    3.1218676  0.011165478  0.012854981            9    5.2649206    879.65894   0.98219885 
   23400   0.84231683   -6.5442405    3.1164523  0.011098477  0.012865043            6    5.4204911    876.35697   0.98589962 
   23500   0.83963879   -6.5466575    3.1315386  0.011104747  0.012874681            4     5.805653     871.7224   0.99114121 
   23600   0.80544894   -6.5877777    3.1189559  0.011013262  0.012881957            3    5.8671344    867.46486   0.99600576 
   23700   0.86213678   -6.5865494    3.1655283  0.011130549  0.012891252            4    5.5194211    872.23123   0.99056302 
   23800   0.84124389   -6.5822823    3.1805784  0.011136479  0.012900524            7     5.362084    875.72224   0.98661421 
   23900   0.84267886   -6.6298807     3.174107  0.011067319  0.012907566            4    5.0987013    875.48748   0.98687877 
   24000   0.88612578   -6.6157496     3.162874  0.010982201  0.012911158            4    5.1926006     876.5441   0.98568914 
   24100   0.86184509   -6.5153584    3.1793641  0.010993652  0.012914313            1    5.8409122    873.38162   0.98925828 
   24200   0.83072185   -6.4947459    3.1745727  0.010931724  0.012916625            2    6.1189605    870.56709   0.99245654 
   24300   0.83814784   -6.5507813    3.1685618  0.010866124  0.012915919            4    5.7878772     871.0377   0.99192032 
   24400   0.88176843   -6.5200958    3.2210521  0.011000861  0.012916072            4    5.6768113    875.47786    0.9868896 
   24500   0.85167918   -6.5697361    3.2337023  0.010998987  0.012918016            4    5.3674193    876.06776   0.98622508 
   24600   0.84107874   -6.5626414    3.2641199  0.011057316  0.012920263            3    5.3297487    875.86653   0.98645167 
   24700   0.84909337   -6.5163732    3.2721258  0.011039561  0.012923602            3    5.8081479    873.25616    0.9894004 
   24800   0.88631226   -6.5946372    3.2484126  0.010915365  0.012924674            7    5.8573123     867.1642    0.9963511 
   24900   0.88008656   -6.6292006    3.2513712  0.010881429  0.012922795            4    5.7735525    865.46532    0.9983069 
   25000   0.85423344   -6.5268843    3.2807791   0.01093593   0.01292133            6    6.0467232    869.40801   0.99377966 
   25100   0.84465548   -6.5442038    3.3172914  0.011013583  0.012921534            5    5.9790666    868.51762   0.99479847 
   25200   0.86467115   -6.5545582    3.3296883  0.011010874  0.012923058            5    6.0173905    868.11313   0.99526199 
   25300   0.86419526   -6.5098921    3.3488016  0.011030308   0.01292478            5     6.008097    871.74182   0.99111914 
   25400   0.84867238   -6.5504598    3.3332993  0.010936021  0.012923818            5    5.7068765    872.20561   0.99059211 
   25500   0.85274033   -6.5664478    3.3618456  0.010986423  0.012922244            4    5.6361685    871.93394   0.99090075 
   25600   0.86523376   -6.5407833    3.3841524  0.011016121  0.012921799            1    5.7735862    872.21796   0.99057809 
   25700   0.83580005   -6.5776723     3.401145  0.011028356  0.012922142            4    5.6831117    870.39236   0.99265577 
   25800   0.83515071   -6.5809394    3.4000111  0.010981948  0.012920859            1     5.747853    870.28534   0.99277784 
   25900   0.85450891   -6.5432058    3.3904419  0.010908758  0.012916506            5    5.7773998    872.23657   0.99055695 
   26000   0.84321669   -6.5985357    3.4167166  0.010951015  0.012912651            1    5.5246009    871.72778    0.9911351 
   26100   0.84041864   -6.6275934    3.4660804  0.011066668  0.012909957            9    5.1082858    874.91182   0.98752809 
   26200   0.84472409   -6.5345935    3.4954764  0.011117927   0.01291097            5    5.3749376    878.09518   0.98394801 
   26300   0.83057095   -6.5158706    3.4968271  0.011079934  0.012911746            8     5.700627    875.21731    0.9871834 
   26400   0.84498114   -6.5349449     3.485466  0.011002102  0.012910463           16    6.2245907    865.95761   0.99773937 
   26500   0.86694793    -6.495443     3.504676  0.011020993  0.012909574            7     6.150565    870.69434   0.99231149 
   26600   0.85266595   -6.4695617    3.5266525   0.01104841  0.012908763            6    6.2217351    871.27795   0.99164681 
   26700    0.8705856   -6.5723259    3.5412184  0.011052492  0.012908614            6    5.7807014    870.61126   0.99240619 
   26800   0.79514147    -6.573976    3.5614729  0.011074232  0.012907942            6    5.4757874    872.94246   0.98975595 
   26900   0.86913472   -6.6099862    3.5854113  0.011107222  0.012906146            7    5.2807124    874.18364   0.98835069 
   27000   0.85897548   -6.5771166    3.5947602  0.011094939  0.012905085            6    5.5046284    873.32267   0.98932506 
   27100   0.84344923   -6.6026003    3.5969738  0.011060805  0.012903583            4    5.4349701    872.05467   0.99076357 
   27200   0.84452068   -6.5298422    3.6370456  0.011142909  0.012902638            5    5.5737271    875.45223    0.9869185 
   27300   0.85131489   -6.4863885    3.6396114  0.011109925  0.012902817            8    6.1181666    871.58411   0.99129848 
   27400   0.85227791   -6.5759249    3.6302615  0.011040941  0.012901525            4    6.0159923    866.23083   0.99742467 
   27500   0.87054632   -6.5563049    3.6575889  0.011083603   0.01290069            5    5.9028816    869.35489   0.99384039 
   27600   0.85705118   -6.5710259    3.6790011  0.011108095  0.012899189            8    5.7611626    870.12019   0.99296627 
   27700   0.87482861    -6.499031    3.6528548  0.010989334  0.012896903            6    6.2900095    868.03584    0.9953506 
   27800    0.9134542   -6.4886881    3.6355229   0.01089785  0.012892157            4    6.3614208    868.51467   0.99480186 
   27900   0.85729781   -6.5229621    3.6746577   0.01097568  0.012886572            6    5.8012851    873.31378   0.98933512 
   28000   0.82910258   -6.5529111    3.7129051  0.011050313  0.012881846            3    5.4871067    874.90257   0.98753853 
   28100   0.87920542   -6.5373363    3.7281403  0.011056169  0.012878506            2    5.7085293    873.08369   0.98959585 
   28200     0.860789   -6.5515979    3.7433425  0.011061887  0.012875825            2    5.3238182    877.88892   0.98417919 
   28300   0.79638709   -6.5394459    3.7217371  0.010959179  0.012870235            2    5.5799564    874.49975   0.98799342 
   28400   0.82298143   -6.5515005    3.7767719  0.011082077  0.012864585            2    5.2495963    878.61926    0.9833611 
   28500   0.84997137   -6.5154101      3.79208  0.011087953  0.012860827            4    5.1879437    882.65092   0.97886943 
   28600   0.85770105   -6.5357239    3.7592039  0.010953391  0.012855178            2    5.8054072     871.7384   0.99112303 
   28700   0.88346594   -6.6110928    3.7405295  0.010861003  0.012847717            3    5.7543146    868.35443   0.99498543 
   28800   0.87717107   -6.5331473    3.7519706  0.010856396  0.012838947            2    5.9745967    870.06064   0.99303423 
   28900   0.86428131   -6.5646751    3.7626212  0.010849542  0.012830192            3    5.8705754    869.18316   0.99403674 
   29000   0.83731212   -6.5589096    3.7899239  0.010890586   0.01282133            4    5.7934319    870.45345   0.99258611 
   29100    0.8458901   -6.5587614    3.8411806  0.010999944  0.012814713            4    5.5165683    874.38106   0.98812754 
   29200   0.88583958   -6.5511696    3.8416074  0.010963491   0.01280884            2    5.4204871    876.78228   0.98542137 
   29300   0.86373232   -6.5475026    3.8599486  0.010978238  0.012802002            3    5.1907246    880.80873   0.98091671 
   29400   0.82472053   -6.5307977    3.8341996  0.010867912  0.012793216            4    5.5559527    875.93612    0.9863733 
   29500   0.80260236   -6.5395697    3.8440657  0.010858942  0.012782911            4    5.3364281    877.29898     0.984841 
   29600   0.83241416    -6.542536    3.8857485  0.010939607  0.012774227            2    5.4144472    876.83222   0.98536525 
   29700   0.80918077   -6.5553778    3.9187707  0.010995428  0.012767543            3    5.6807542    871.87608   0.99096652 
   29800   0.84647778   -6.5790593    3.9462739  0.011035441  0.012762616            2    5.6385659    871.50253   0.99139127 
   29900   0.85055855   -6.5768777    3.9501745  0.011009405  0.012757812            5    5.6408539    871.66173    0.9912102 
   30000   0.85878311    -6.564392    3.9144631  0.010873508  0.012750819            3    6.1444357    864.63397   0.99926678 
   30100   0.87024607   -6.6505509    3.9369665  0.010899686    0.0127427            4    5.6958944    865.95628   0.99774091 
   30200   0.86459467   -6.5448467    3.9754894  0.010969893  0.012735176            7    5.8795093    870.62635   0.99238899 
   30300   0.83055162   -6.6215789    3.9896253  0.010972567  0.012728394            4    5.1194087    875.33459   0.98705114 
   30400   0.85910136   -6.6182296    3.9994802  0.010963487  0.012721236            6     5.252965    873.86262   0.98871377 
   30500   0.86746572   -6.5289529    4.0031594  0.010937594  0.012714029           10    5.6471935    875.30083    0.9870892 
   30600   0.84797838   -6.5716308    3.9643734  0.010796224  0.012704803            8    5.5274447    873.08933   0.98958946 
   30700   0.84536634   -6.5746339    3.9650834  0.010762984  0.012692989            6      5.81663    868.76248   0.99451809 
   30800   0.85394382   -6.6002529    3.9703217  0.010742212  0.012681966            7    5.8106508    868.09774   0.99527964 
   30900   0.91008709   -6.5863741    3.9938481  0.010770896  0.012670942           13    5.8048216    869.11485   0.99411487 
   31000   0.85959476   -6.5786608    4.0276903  0.010827124  0.012661673            8    6.1427227    864.09966   0.99988466 
   31100   0.84479176   -6.5354003    4.0571893  0.010871354    0.0126535            7    6.1771472    867.04954   0.99648285 
   31200   0.88646848   -6.5384799     4.083508  0.010906805  0.012646895            8    6.0599873     868.7715   0.99450776 
   31300   0.88215297   -6.6033535    4.0965566    0.0109067  0.012640148           18    5.8816892    866.62961   0.99696571 
   31400   0.81184532   -6.5754239     4.080603  0.010829626   0.01263167            8    6.0555726    865.17223   0.99864509 
   31500   0.85256902   -6.5858625    4.1257173  0.010914596  0.012623454           10    5.4858884    873.27623   0.98937767 
   31600   0.84746162   -6.5546399    4.1178203  0.010859231  0.012615608            7     5.609071    873.37275   0.98926833 
   31700   0.87454479   -6.5519986    4.1319495  0.010862117  0.012607035           11    5.8118108    871.47854   0.99141856 
   31800   0.89203938   -6.5410195    4.1433761  0.010857904  0.012599269           12    5.9156906    870.45502   0.99258432 
   31900   0.84557145   -6.5919056    4.1265643  0.010779948  0.012589862            9    5.8405194    867.27078   0.99622865 
   32000   0.84412967   -6.5840507    4.1619144  0.010838319  0.012580735           10    5.5593866    871.10389   0.99184495 
   32100   0.84276329   -6.5309362     4.184786   0.01086393  0.012572435           12    5.8936841    870.44964   0.99259046 
   32200   0.83625001   -6.5376076    4.2325151  0.010953714  0.012565597            6    5.7050687      872.511   0.99024539 
   32300   0.85606068   -6.5392769    4.2602193  0.010991278  0.012559761            8    5.5733726     875.4935   0.98687198 
   32400   0.81967644    -6.559966    4.2719328  0.010987481  0.012554612           11    5.7204712    870.96852   0.99199911 
   32500    0.8358071   -6.5976294    4.2536813  0.010906875  0.012548186           27    5.7199971    869.10319   0.99412822 
   32600   0.85760584   -6.5851799    4.2918814  0.010971067  0.012541456           22    5.3607917    875.24455   0.98715268 
   32700   0.86016197   -6.5088588    4.3108976  0.010985978  0.012535648           17    5.4698667    878.99309   0.98294288 
   32800   0.84216798   -6.5280704    4.2885972  0.010895826  0.012528608           11    5.4930098    877.90298   0.98416343 
   32900   0.85840747   -6.5736913    4.2782094  0.010836396  0.012519796           24    5.4216167    874.99318   0.98743627 
   33000   0.82672288   -6.5659259    4.2976416   0.01085263  0.012511798           15    5.7108442    871.04364   0.99191356 
   33100    0.9101704   -6.6255295    4.2901856  0.010801071  0.012502812           12    5.5773415    869.92918   0.99318429 
   33200   0.88520612    -6.533532    4.3035878  0.010802178  0.012494765           13    6.4457122    863.92583    1.0000859 
   33300   0.86745831   -6.5588748    4.3145293   0.01079712  0.012486943           13    6.0453498    867.25589   0.99624575 
   33400   0.86098484   -6.5954593    4.3126051  0.010759993   0.01247761           19    6.0048207    865.02967   0.99880967 
   33500   0.88080359   -6.5424889      4.34266  0.010802637   0.01246819           14    5.7174607    872.60062    0.9901437 
   33600   0.88515427   -6.6302228    4.3445357  0.010775138  0.012458823           15    5.3849325    871.95267   0.99087947 
   33700   0.85921577   -6.6117031    4.3545085  0.010767825  0.012448892            8    5.4773554    871.53366   0.99135586 
   33800   0.84060025   -6.5535002    4.4241079  0.010907564  0.012440514           10    5.5820472    873.74449   0.98884743 
   33900   0.83787756   -6.5242838    4.4573914  0.010957206  0.012434245           11    5.8168444    873.25822   0.98939807 
   34000   0.82864087   -6.5510197    4.4463143  0.010897829  0.012428922            8    5.9081248    869.30412   0.99389843 
   34100   0.83448844   -6.5724836    4.4659007  0.010913736  0.012422694           20    5.6423132    871.57986   0.99130331 
   34200    0.8412422   -6.5459262    4.5019875  0.010969755   0.01241699           32    5.3566372    878.29209   0.98372741 
   34300   0.88117565   -6.5679155    4.5199169  0.010981333  0.012411476           16    5.4631203    874.79741   0.98765725 
   34400   0.83035838   -6.5351896    4.5260377  0.010964239  0.012406636           32    5.7913592    872.38437   0.99038913 
   34500   0.84961311   -6.5795296    4.5486302  0.010987029  0.012401963           30     5.684166    871.10776   0.99184055 
   34600   0.86994729   -6.5583652    4.5359656  0.010924772  0.012397152           11     6.057626    867.28242   0.99621528 
   34700   0.84487843   -6.5035121    4.5192999  0.010853266  0.012390834           12    6.1646757    869.05279   0.99418587 
   34800   0.82998339   -6.5349623      4.52097  0.010826077  0.012383611            7    6.2148724      865.653   0.99809045 
   34900   0.88568946   -6.5588482     4.539435  0.010839147  0.012376309            3    5.6845349    872.78776   0.98993139 
   35000   0.86927649    -6.529656    4.5509869  0.010835683  0.012368831            4    5.7554796    874.04193   0.98851093 
   35100   0.81575467   -6.5539563    4.6089071  0.010942324  0.012362002            6    5.2814457    877.62298   0.98447741 
   35200   0.87134299    -6.553622    4.6304296  0.010962191  0.012356692            9      5.47152    876.39564   0.98585611 
   35300   0.83884833   -6.5483575    4.6254594  0.010919404  0.012350943            8    5.8579185    870.19563   0.99288019 
   35400   0.84189708   -6.5600587    4.6329086  0.010906094    0.0123451           20    5.8266739    869.87629   0.99324468 
   35500   0.85221129    -6.535813    4.6618385  0.010943283  0.012339418           29    5.5284088    875.54426   0.98681476 
   35600   0.81136189   -6.5814689    4.6652587  0.010920549  0.012333662           44    5.3210229    874.24741   0.98827859 
   35700   0.86635539   -6.6008637    4.6586969  0.010874642  0.012326989           23    5.6284973    869.49356   0.99368189 
   35800   0.84218051   -6.5835065    4.7036698  0.010948952  0.012321513           35    6.0224491     865.0591   0.99877569 
   35900   0.84118098   -6.6240093    4.7148197  0.010944335  0.012316642            8    5.8684012    864.36805    0.9995742 
   36000   0.81531784   -6.5389908    4.7688773  0.011039068  0.012312614            9    5.6112089    874.07498   0.98847355 
   36100    0.8396403   -6.5598058    4.7847411  0.011045109  0.012309225           19    5.5559128    873.65519   0.98894851 
   36200   0.82977757   -6.5721079    4.8130091  0.011079671  0.012306552            9    5.6479326     870.9746   0.99199219 
   36300    0.8531355   -6.5236252    4.8610018  0.011159324  0.012304374           17      5.82533    872.46117   0.99030195 
   36400   0.83408647   -6.5395485     4.859844  0.011126016   0.01230352           20    5.7224016     872.7487   0.98997569 
   36500   0.84317632   -6.6585122    4.8682516  0.011114729  0.012301384           20    5.1056644    873.48585   0.98914024 
   36600    0.8819595   -6.5759299    4.8555534  0.011055449  0.012298043           31    5.5583031    872.70248   0.99002813 
   36700   0.86648483   -6.5338711    4.8846569   0.01109141  0.012295908           12     5.634171    875.11498   0.98729884 
   36800   0.82968022   -6.5618346     4.898954  0.011093646  0.012293401           16     5.669016    871.55851   0.99132759 
   36900   0.84724793   -6.5804816    4.9283967  0.011130074   0.01229199            9    5.7636066    868.79572   0.99448003 
   37000   0.87218691   -6.5036513    4.9303096  0.011104301   0.01229043           16    5.8802617     873.1337   0.98953917 
   37100   0.87717255    -6.545889    4.8987058  0.011003382  0.012287389            9    5.9049304    870.04905   0.99304746 
   37200   0.85219194   -6.5810607    4.9365533  0.011058587  0.012284091           13    5.8132513    868.45296   0.99487254 
   37300   0.82603556   -6.5413189    4.9391645  0.011034773  0.012281075           19     6.026674    868.27258   0.99507921 
   37400   0.81442427   -6.4818736    4.9854396  0.011108377  0.012278181           20    6.0043159    873.02649   0.98966069 
   37500   0.79648273   -6.5810715    5.0279108  0.011173135    0.0122766           45    5.4385466    872.91388   0.98978836 
   37600   0.84776403   -6.6073086    5.0739134  0.011245375  0.012275597           51    5.1230812    876.50295   0.98573541 
   37700   0.83149419   -6.5986721    5.0988406  0.011270647  0.012275389           49    5.2017795    875.79903    0.9865277 
   37800   0.82609152   -6.5713484    5.0703132  0.011177939  0.012274891           44    5.4541143    873.93734   0.98862923 
   37900   0.86064033   -6.5804035    5.0545578  0.011113803  0.012273267           22    5.7064449    870.07229   0.99302094 
   38000   0.81000052     -6.58257    5.0566628  0.011089173   0.01227063           17    5.6904383    869.59815   0.99356237 
   38100   0.80881889   -6.5559641    5.1073322  0.011170893  0.012268639           17    5.5704934    872.43236   0.99033466 
   38200   0.84153687   -6.5825433    5.1416833  0.011216586  0.012267547           29    5.3286267    874.82502   0.98762608 
   38300   0.82701036   -6.5751177    5.1696702  0.011248194  0.012266958           10    5.5561254    871.60781   0.99127152 
   38400   0.85329441   -6.5322537    5.2045302  0.011294553  0.012267517           15    5.7399816    872.99175   0.98970008 
   38500   0.85235682    -6.522892    5.2276857  0.011315337  0.012268945            6    5.7494241    873.44361   0.98918807 
   38600   0.85704743   -6.5877347    5.2367974  0.011305694  0.012270027            4    5.5948194    871.33338   0.99158372 
   38700   0.82505516   -6.5990804    5.2665218  0.011340486   0.01227163           14    5.3581465    873.01669    0.9896718 
   38800   0.83692712   -6.5453949    5.2729758   0.01132512  0.012273164           14    5.7403398    872.13148   0.99067631 
   38900   0.89103976    -6.601086    5.2503312  0.011247496  0.012274161           19    5.5785177     870.5101   0.99252152 
   39000   0.80140649   -6.5523597    5.2186216  0.011150901  0.012273366           14     6.198124    864.15452   0.99982119 
   39100   0.85615715   -6.5692491    5.2361876   0.01115982  0.012271776           24    5.7872146    870.32871   0.99272837 
   39200   0.87158114   -6.5633144    5.2372428  0.011133594  0.012269816           29    5.7179381    871.84215   0.99100508 
   39300   0.88055646   -6.5820376    5.2453734  0.011122505  0.012267573            9     5.512259    874.34151   0.98817223 
   39400   0.83394567   -6.5842334    5.2396691   0.01108221  0.012264857           18    5.6037644    870.62023   0.99239597 
   39500   0.81801684   -6.5830154    5.2906522  0.011161713  0.012262233           19    5.6110837    870.93634   0.99203577 
   39600   0.83282928   -6.6026757    5.3212143  0.011197841  0.012259857           32    4.9171624    879.38766   0.98250185 
   39700   0.84977675   -6.5933507    5.3097133  0.011145494  0.012257186            6    4.9787167    880.08521   0.98172312 
   39800   0.83690042   -6.5789991    5.2943302  0.011085281  0.012253349            6    5.5824066    871.48207   0.99141455 
   39900    0.8451777    -6.575431    5.3267673  0.011125245  0.012250688            6    5.4546098    874.22879   0.98829964 
   40000   0.84322262   -6.5693338    5.3453579  0.011136162  0.012247754            2    5.4379889    874.65352   0.98781973 
   40100   0.86357472   -6.5860038     5.366142  0.011151583  0.012245377            9    5.5687138    871.88125   0.99096063 
   40200   0.89220342   -6.6017465    5.3455744  0.011081207  0.012242778            4    5.7841685    868.16629   0.99520105 
   40300   0.81181529   -6.5711027    5.3826218  0.011130318  0.012239912            4    5.8446325    869.28936   0.99391531 
   40400   0.86691178   -6.5961387    5.4209931  0.011181916  0.012237719            2    5.3899855    873.63525   0.98897108 
   40500   0.84570858   -6.5652999     5.428339  0.011169422  0.012235988            3     5.518288    873.75384   0.98883686 
   40600     0.841498   -6.6090533    5.4518141  0.011190095  0.012234495            8    5.3938752     872.3041   0.99048027 
   40700   0.81500683   -6.5776611    5.4225895  0.011102763  0.012231898            4    5.8476865    867.92818   0.99547407 
   40800     0.869792   -6.5554756     5.453978  0.011139661   0.01222939            2    5.9076775    869.89554    0.9932227 
   40900   0.91415388   -6.5220926    5.4859003  0.011177466  0.012227879            5    6.0500344     870.2682   0.99279739 
   41000   0.88058704   -6.5154813    5.5063135  0.011191694  0.012227056            5    6.0912649    869.91962   0.99319521 
   41100   0.83755602   -6.5299151     5.507745  0.011167366    0.0122253            9     5.828208    872.05675   0.99076121 
   41200   0.86715457   -6.5402726    5.5559411  0.011237745  0.012224317            3    5.5978578    874.78155   0.98767515 
   41300   0.81868657   -6.5344669    5.5807366  0.011260566  0.012223629            4    5.5747905    874.44951   0.98805018 
   41400   0.85831541   -6.5386533    5.5796578  0.011231195  0.012222795            4    5.6176291    873.92059   0.98864818 
   41500   0.82403255   -6.5307997    5.5700313  0.011184802   0.01222161            3    5.8825336    870.87701   0.99210335 
   41600   0.84301076   -6.5488966    5.6080026  0.011233979  0.012220093            5    5.5061342    875.62114   0.98672812 
   41700   0.83553375   -6.4951062    5.6004321   0.01119191  0.012218684            2    6.1068879    871.27898   0.99164564 
   41800   0.88372283   -6.5364717    5.6448326  0.011253653  0.012218108            7    5.8039313    872.37987   0.99039424 
   41900   0.84638257   -6.5917621    5.6561334  0.011249271  0.012218004            7    5.6351396    870.83972   0.99214583 
   42000   0.87787791   -6.5815079    5.6364122  0.011183357  0.012216876            4    5.7094158    870.15543   0.99292606 
   42100   0.84947422   -6.5400609    5.6422426  0.011168334  0.012215419            9    5.7762506    871.78575   0.99106919 
   42200   0.88534133   -6.5262268    5.6462977  0.011149877  0.012213077            3    5.3976301    879.25859   0.98264608 
   42300   0.82932714    -6.500682    5.6085454  0.011049144  0.012209521            2    5.8162042    873.52954   0.98909077 
   42400   0.84387626   -6.5676988     5.622115  0.011049754  0.012205063            5    5.7143254    871.21185   0.99172205 
   42500   0.83772272   -6.5173418    5.6262389  0.011031841  0.012200705           13    5.7733571    874.43174   0.98807027 
   42600   0.86773356    -6.496844    5.6429529   0.01103864  0.012196534            4    5.9314072    874.02374   0.98853151 
   42700   0.83705643   -6.5691635    5.6737617  0.011072915  0.012192314            9      5.39211    875.85441   0.98646531 
   42800   0.82441386   -6.5389222    5.6956053  0.011089574  0.012188222            6    5.3201442    878.09668   0.98394632 
   42900   0.87894011   -6.5604375    5.6355279  0.010947024   0.01218334            3    5.2229774    878.45972   0.98353969 
   43000   0.84494921   -6.5622187    5.6621745  0.010973206  0.012177183            6    5.6526184     871.6579   0.99121456 
   43100   0.84812228    -6.563107    5.7096511  0.011039542  0.012172352            8    5.6115009    872.43842   0.99032777 
   43200   0.86937328   -6.5174213    5.7391781  0.011070945  0.012168374            3    5.7113198    875.35988   0.98702262 
   43300   0.85213355   -6.4795898     5.712601  0.010994228  0.012164481            7    6.1012083    871.58165   0.99130127 
   43400   0.85453428   -6.5445256    5.6999892   0.01094468  0.012159617            2    5.9543424    869.66723   0.99348345 
   43500   0.81267169   -6.5505125    5.6988877  0.010917409  0.012153594            2    5.6164503    873.33997   0.98930546 
   43600   0.84032168   -6.5627069    5.7261207   0.01094442   0.01214715            2    5.0132844    881.15242   0.98053411 
   43700   0.85807462    -6.518067    5.7635064  0.010990668  0.012141015            2    5.0837057    883.50573   0.97792235 
   43800    0.8854491   -6.5012155    5.7878685  0.011011926  0.012136265            2    5.5304168    878.91406   0.98303127 
   43900   0.84813314   -6.5463529    5.7611666  0.010936155  0.012130935            3    5.8022113     871.2509    0.9916776 
   44000   0.84061727   -6.5451537    5.7666088  0.010921607  0.012125419            3    5.8042145    871.33647   0.99158021 
   44100   0.88605255   -6.5122406    5.8062407  0.010971732  0.012120339            4    5.7329841    875.60134   0.98675043 
   44200   0.86452853   -6.5523737    5.8337188  0.010998716  0.012115638            5    5.6111104    874.91013      0.98753 
   44300   0.84214978   -6.5277971    5.8502055  0.011004901  0.012111388            2    5.9635868    870.54018   0.99248721 
   44400   0.86418017   -6.5188851    5.8443782  0.010969178  0.012107152            7    5.8326922    873.33051   0.98931618 
   44500   0.84910051   -6.5061987    5.8570303  0.010968221  0.012102341           10    5.7323668    875.25934   0.98713599 
   44600   0.85855467   -6.5974655    5.8469661  0.010924824  0.012096958           12    5.6103986     870.7315   0.99226914 
   44700   0.84666436      -6.5431    5.8762099  0.010954903  0.012091966            4    5.9272456     870.0457   0.99305129 
   44800   0.86039532   -6.5350514    5.8871625  0.010950823  0.012087268            5    5.6889992    873.80776   0.98877584 
   44900   0.86712466   -6.5731009     5.886681   0.01092554  0.012082049           12    5.3620382    876.75769   0.98544901 
   45000   0.83535692   -6.5807343    5.9103159  0.010945029  0.012076717           12    5.5748579    872.30135   0.99048339 
   45100   0.85198486   -6.5738192    5.9245655  0.010947091  0.012071626            6    5.7990943    869.92328   0.99319103 
   45200   0.85167776   -6.5385467    5.9948743  0.011052497  0.012067485            8    5.5886608    875.35543   0.98702763 
   45300    0.8626111   -6.4662461    5.9917249  0.011022305  0.012064059            9    5.8329839    876.21342   0.98606113 
   45400   0.85485577   -6.5430976    5.9990389  0.011011452  0.012060411            4    5.5170444    876.08803   0.98620226 
   45500   0.83584269   -6.5336029    5.9880254  0.010967079  0.012055785            7    5.7006305    873.26033   0.98939569 
   45600   0.84855963   -6.5095812    5.9992451  0.010963533  0.012050729            3    5.6698039    875.84573    0.9864751 
   45700    0.8859179   -6.5338166    6.0421672   0.01101781  0.012046607            8    5.5050763    876.93458   0.98525023 
   45800    0.8347056    -6.497423      6.05266  0.011012846  0.012042988            3    5.9569723    872.61106   0.99013185 
   45900   0.82585687   -6.5663455    6.0509667  0.010985778  0.012038774            4    5.8074466    869.32037   0.99387986 
   46000   0.86279933   -6.5956928    6.1063843   0.01106229  0.012034974            3    5.4893298    872.12967   0.99067837 
   46100   0.86877984   -6.5375087     6.104726  0.011035296  0.012031711            3    5.6951815     873.6473   0.98895745 
   46200   0.84340031   -6.5949202    6.1459117  0.011085699  0.012028872            3    5.5202707    871.51071   0.99138197 
   46300   0.83496034   -6.5851757     6.213613  0.011183609  0.012026783            7    5.1982044    876.53491   0.98569947 
   46400   0.83292734   -6.5384935     6.226079  0.011181895  0.012025102            8    5.2099416    880.22205    0.9815705 
   46500   0.83000067   -6.4601064    6.2412381  0.011185014   0.01202382            6    6.0297862    873.65927   0.98894389 
   46600    0.8875835   -6.5579716    6.2555487  0.011186603  0.012023153            8    5.7786609    871.53106   0.99135882 
   46700   0.87031441    -6.571899    6.2385723  0.011132356  0.012021709            3      5.90589     868.6682   0.99462603 
   46800   0.81312981   -6.5595341    6.2290063  0.011091535  0.012019816            2    5.9278479    868.01447   0.99537511 
   46900   0.84571233   -6.5031435    6.2531263  0.011110743  0.012017203            9    5.9618033    872.11207   0.99069836 
   47000   0.83813163   -6.5295165     6.294722  0.011160855  0.012015451           15    5.6460859    874.59418   0.98788675 
   47100   0.82482436   -6.6071551    6.3121618  0.011168014   0.01201342           31    5.2802592    874.39109    0.9881162 
   47200   0.83827491   -6.5556237    6.3000048   0.01112289  0.012011258           11    5.5432401    873.68897   0.98891027 
   47300   0.84494106    -6.467964    6.3554864  0.011197122  0.012009897           19    6.1516744     872.3631   0.99041329 
   47400   0.84826881    -6.545684    6.3457454  0.011156374  0.012009218           25    5.9978281    868.19172    0.9951719 
   47500   0.86224092   -6.5480915    6.3376949  0.011118763  0.012007935            5    6.2386026    864.74499   0.99913849 
   47600   0.82203684   -6.5430494    6.3570517  0.011129292  0.012006259            5    6.0434361    868.18041   0.99518486 
   47700   0.82213526   -6.5216795    6.4054453  0.011190505  0.012004773            5    5.8714102    872.03546    0.9907854 
   47800    0.8513008   -6.5195957    6.4582323  0.011259122  0.012003977            8    5.6492104    875.33513   0.98705053 
   47900   0.86620077   -6.5558778    6.4651814  0.011247706  0.012003952            4     5.903771    870.29853   0.99276279 
   48000   0.85005402   -6.5623522    6.4734742   0.01123867  0.012003929           19    5.8096102    869.86625   0.99325615 
   48100   0.87174655   -6.5236671    6.5049345   0.01126981  0.012003837           17    5.5825913    876.57233    0.9856574 
   48200   0.84159873   -6.5260204    6.5397636  0.011306645  0.012003703           13    5.2199387    880.85928   0.98086042 
   48300   0.83318706   -6.5985321    6.5186815  0.011246862  0.012003179           19    5.2290384    875.15668   0.98725179 
   48400   0.81883551   -6.5588162    6.5129035  0.011213677  0.012001823           18    5.3763974    875.75481   0.98657751 
   48500   0.84040171   -6.5641569    6.5630376  0.011276697  0.012000806           15    5.0313352    881.01656   0.98068531 
   48600   0.85840999   -6.5691376    6.5583076  0.011245383  0.011999913           14    5.3760642    875.66582   0.98667777 
   48700   0.79822031   -6.5628887    6.5472221  0.011203323   0.01199883           14    5.6729534    871.21599   0.99171733 
   48800   0.84086488   -6.5743943    6.5612825  0.011204376  0.011997525            7    5.5576374    873.15748   0.98951223 
   48900   0.83342429   -6.5507627    6.5935511  0.011236454  0.011996629           17    5.6874622    872.39911    0.9903724 
   49000   0.81836729   -6.6266121    6.6064113  0.011235393  0.011995623           20    5.3736232    870.81693    0.9921718 
   49100   0.85676646   -6.5752602     6.597027  0.011196583  0.011994721           22    5.6568574     870.7234   0.99227838 
   49200    0.8173584   -6.4773687    6.6212389  0.011214835  0.011993711           15    6.0961859    871.35964   0.99155384 
   49300   0.87714596    -6.527826    6.6578133   0.01125391  0.011993152           18    5.4103386    878.71469    0.9832543 
   49400   0.81277235   -6.4902526    6.6427794  0.011205768  0.011992119           15    5.6237722    877.08288   0.98508364 
   49500   0.83998078   -6.5373379    6.7015236  0.011282026  0.011991185            9    5.4186102    877.44626   0.98467569 
   49600   0.91479569   -6.5744175     6.680668   0.01122424  0.011990701            6    5.5426182    874.09934     0.988446 
   49700   0.86071759   -6.5553406    6.6404454  0.011134214   0.01198939           11    6.0555355    866.74168   0.99683679 
   49800   0.84044625    -6.541555    6.6260477  0.011087764  0.011987275            7    6.3468864     863.8834     1.000135 
   49900   0.87257883   -6.5198871    6.6534543  0.011111313  0.011985282           19    5.8475392    872.92791   0.98977245 
   50000   0.87063769   -6.5775624    6.6603517  0.011100586   0.01198283            8    5.5742122     872.1338   0.99067368 
   50100   0.83861147   -6.5600192     6.667396  0.011090146  0.011980058            5     5.742855    870.04849    0.9930481 
   50200   0.84888869   -6.6299459    6.6838198  0.011095318  0.011977266            7    5.3918011    870.71648   0.99228626 
   50300   0.83834765   -6.6406962    6.6431278  0.011005845  0.011973752            6    5.6645219    866.00922   0.99767991 
   50400   0.84341698   -6.5381283    6.7029247  0.011082878  0.011970169            6    5.8573097     870.4011    0.9926458 
   50500   0.86991219   -6.5810707    6.7031163  0.011061248  0.011967389           11    5.7348565    870.25306   0.99281466 
   50600   0.86200475   -6.5585758    6.6993812  0.011033236  0.011964219            4    5.9237574      868.105   0.99527131 
   50700   0.90393314    -6.546368    6.7133577  0.011034447   0.01196137            4     6.168605    866.52297    0.9970884 
   50800   0.83750614   -6.5552277    6.7176575  0.011019779  0.011958325           13    6.3054037    863.53216    1.0005418 
   50900   0.86734668   -6.5455637     6.750763   0.01105233  0.011955423            5    6.0474639    868.21847   0.99514124 
   51000   0.82290905   -6.5401401     6.791295  0.011096887  0.011952854            7    5.5229794     874.6419   0.98783285 
   51100    0.8232718   -6.5079324    6.7736813  0.011046447  0.011949694            6    5.6521948    875.98144   0.98632227 
   51200   0.86573526   -6.5683363    6.7305367  0.010954649  0.011945864           11    5.6984721    871.50732   0.99138582 
   51300   0.86721002   -6.5900935    6.7360396  0.010942235  0.011941302           13    5.6415609    871.16377   0.99177678 
   51400   0.84654329   -6.6174329    6.7699511  0.010975926  0.011936959           31    5.4604423    871.02334   0.99193668 
   51500   0.83271897    -6.577231    6.7922762  0.010990738  0.011932962           11    5.7564697    869.59135   0.99357014 
   51600   0.86119989   -6.5645601    6.7778807   0.01094619  0.011928951            6    5.8136213    870.10814   0.99298003 
   51700   0.83458221    -6.581027    6.8075311   0.01097281  0.011924775            7     5.668722    870.21422   0.99285898 
   51800   0.84549065    -6.488178    6.7777302  0.010903684  0.011920564            4    6.4986176     865.2071   0.99860484 
   51900   0.83729628   -6.5073314    6.7926219  0.010906586  0.011916313            2    6.3568101    866.72785    0.9968527 
   52000   0.84051704   -6.6070734    6.7982811  0.010894681  0.011911858           12     5.958893    864.26011   0.99969903 
   52100   0.81984771   -6.5457622    6.8558845  0.010965906  0.011907513            3    6.0547454    866.79906   0.99677081 
   52200   0.82621211   -6.5562725      6.89492  0.011007216  0.011903871           15    5.6672614    872.91835    0.9897833 
   52300   0.84924709   -6.5490585    6.9173472  0.011021904  0.011900188           13    5.5080928    875.52901   0.98683195 
   52400   0.81844878   -6.5812132    6.8822686  0.010945084   0.01189622            6    5.5302324    872.41795   0.99035101 
   52500   0.86637147   -6.5564488    6.9316663  0.011002645  0.011892248           20    5.7468151    871.80901   0.99104275 
   52600   0.85050411   -6.5758877    6.9432761   0.01100012  0.011888805           20    5.6082562    872.15589   0.99064859 
   52700   0.84112496   -6.6002457    6.9406301  0.010975063   0.01188537           32    5.5503112    871.03051   0.99192851 
   52800   0.85630478    -6.546443    6.9885998  0.011029987  0.011881622           22    5.5346133    874.76129   0.98769803 
   52900   0.81292226   -6.5531433    7.0742493   0.01114406  0.011879115           21    5.3224127    877.07333   0.98509437 
   53000   0.82119447   -6.5465464    7.0676487  0.011112655  0.011876856           19    5.5127573    874.97236   0.98745976 
   53100   0.85596795   -6.5050367    7.0699041  0.011095267    0.0118749           11    5.7224331      875.879   0.98643762 
   53200   0.85048218   -6.5066177    7.0725205  0.011078509  0.011872675            7    5.6684067    875.88816   0.98642731 
   53300   0.88559188   -6.5167869    7.0904124  0.011085698  0.011870298           15     5.320608    880.59135   0.98115886 
   53400   0.84369054   -6.5303473    7.0656319  0.011026267  0.011867411           33    5.7887127    872.19575   0.99060331 
   53500   0.82455167   -6.5680163    7.0941411  0.011050064  0.011864409           24    5.4190989    874.44385   0.98805658 
   53600   0.81432845   -6.4804818    7.1124163  0.011057861  0.011861655           10    5.7337263    876.33588   0.98592335 
   53700   0.86221436   -6.5272513    7.1085952  0.011031339  0.011858713           17    5.6782035    875.40528   0.98697143 
   53800   0.85183373   -6.6040736    7.1100742  0.011013126  0.011855453           10    5.5536243      871.092   0.99185849 
   53900   0.86309321   -6.5821464    7.1190764  0.011006612  0.011852195           10    5.6076682    871.88071   0.99096125 
   54000   0.84114994   -6.5451845    7.1608198  0.011050648  0.011849288            6    5.6285024    874.33377   0.98818098 
   54100   0.89190224   -6.5442409    7.2161404  0.011115435  0.011846951           20    5.4693142    877.21849   0.98493136 
   54200   0.82241901   -6.5068146    7.2438829  0.011137581  0.011845181            7    5.5178211    877.99848   0.98405638 
   54300   0.83127274   -6.5377391    7.2302796  0.011096193   0.01184313            8    5.5150064    875.89013   0.98642509 
   54400   0.86764374   -6.5347197    7.2430075  0.011095293  0.011840997            7    5.6056694     875.2339   0.98716468 
   54500   0.83214802   -6.5647112    7.2461164  0.011079689  0.011838828            8    5.6151859    872.93897   0.98975992 
   54600   0.82933582   -6.4947357     7.251618  0.011067793  0.011836465            8    5.9406991    872.57805   0.99016931 
   54700   0.89395632   -6.5426266    7.2939502  0.011112051  0.011834383            8    5.4701377    876.68441   0.98553139 
   54800    0.8467094   -6.5601519    7.3009656  0.011102442  0.011832538            3    5.4721395    874.44274   0.98805784 
   54900   0.84670043   -6.5212077    7.3029248  0.011085192  0.011830424            5    5.6701115    875.25228   0.98714396 
   55000   0.81693868   -6.5148308    7.3056584  0.011069179  0.011827765            6    5.5248098    877.65971   0.98443621 
   55100   0.89324079   -6.5435465     7.306237  0.011049965  0.011825604            5    5.9296222    870.93117   0.99204165 
   55200   0.83729948   -6.4898599    7.3212313  0.011052583  0.011823334            5    5.9340459    874.20754   0.98832367 
[...]
   89400   0.80366352   -6.5816649    11.833502  0.011030483  0.011492197            9    5.2662763    875.61886   0.98673068 
   89500   0.85705468    -6.617932    11.819783  0.011005385  0.011490225           10    5.4510893    870.83752   0.99214834 
   89600   0.82838957   -6.5521335     11.83056  0.011003125  0.011488433            6    5.7192398    871.30215   0.99161927 
   89700   0.81401175   -6.5546351    11.817884  0.010979082  0.011486495           14    5.7078591    870.79388   0.99219806 
   89800   0.81028466    -6.587293    11.787385  0.010938553  0.011484281            4    5.5833957    871.00993   0.99195195 
   89900   0.86046538   -6.5368465     11.81815  0.010954904  0.011482018            5    5.7921218    872.35904    0.9904179 
   90000   0.84711805   -6.5562001    11.782478  0.010909701   0.01147996            4    6.1281943    866.08153   0.99759662 
   90100   0.86816658   -6.5834896    11.768734  0.010884881    0.0114777            9    6.1004967    864.68076    0.9992127 
   90200   0.85091382   -6.5531515    11.805545  0.010906823  0.011475392            5    6.0255298    867.14416   0.99637412 
   90300    0.8651566   -6.5049449    11.803072  0.010892463  0.011473061            2    6.0134674    871.01269    0.9919488 
   90400   0.84678481   -6.5281716    11.825471  0.010901061  0.011470789            5    5.8947762    871.11404   0.99183339 
   90500   0.86613116   -6.5870611    11.839788  0.010902199  0.011468469            8    5.6327784    870.11443   0.99297284 
   90600   0.87486459   -6.4895181    11.871162  0.010919023  0.011466219            8    5.8941229    873.99539   0.98856356 
   90700   0.88326216   -6.5619623    11.876557  0.010911942  0.011464062            2    5.6971339    872.20323   0.99059481 
   90800   0.85100934   -6.5875577    11.863986  0.010888386  0.011461638            5    5.7511217    868.39494   0.99493901 
   90900   0.82996995    -6.543848    11.974331  0.010977568  0.011459445            7    5.8214303    871.57475   0.99130912 
   91000   0.82173608   -6.6116989    12.015506   0.01100321  0.011457469           11    5.0323564    876.97969   0.98519955 
   91100   0.83230141   -6.5953373    11.987057  0.010965109  0.011455249            9    5.0041558    878.84965   0.98310331 
   91200   0.82287566   -6.5988927     11.95521  0.010923985  0.011452763           13    5.1131639    876.36292   0.98589292 
   91300   0.81374176   -6.5558019    11.914369  0.010874743  0.011450192            5    5.6310545    871.92688   0.99090878 
   91400   0.86264473   -6.5744273    11.921266  0.010869133  0.011447558           19     5.827337    869.38672     0.993804 
   91500   0.83059581    -6.536791    11.888368  0.010827293  0.011445022           11    6.0041231    868.81109   0.99446244 
   91600   0.86881577   -6.5386161    11.916677  0.010841227  0.011442402           21    5.7055893    873.27424   0.98937992 
   91700   0.84554592   -6.5724808     11.95442  0.010863704  0.011439729            8    5.4690163    873.97856    0.9885826 
   91800   0.85626797   -6.5545923    11.933189  0.010832597  0.011437026            9    5.8253474    870.64551   0.99236714 
   91900   0.85246394   -6.5369566    11.934709  0.010822188   0.01143446           12    6.1105931     867.6562   0.99578612 
   92000   0.87268832   -6.5056825    11.945772  0.010820446  0.011431915            5    6.1819217    869.58535     0.993577 
   92100   0.87448208   -6.5791948    11.950084  0.010812599   0.01142927           16    5.7945188    869.44481    0.9937376 
   92200   0.86393533    -6.580124    11.984666  0.010832128  0.011426608            8    5.7473385    869.92345   0.99319083 
   92300   0.85098341   -6.5253075    12.005645  0.010839333  0.011424079           20    6.1315783    868.21667    0.9951433 
   92400   0.86555099   -6.5340754    12.054478  0.010871643   0.01142182           11    6.0942939    868.53232   0.99478163 
   92500   0.82939769   -6.4977447    12.103722  0.010904254  0.011419707            7    6.1760956    870.36042    0.9926922 
   92600   0.85521698   -6.5949375     12.08103  0.010872057  0.011417523           13    5.6589544    870.16469   0.99291549 
   92700   0.88708452    -6.561192    12.120415  0.010895735  0.011415272           10    5.5790069     873.9597   0.98860393 
   92800   0.87188392   -6.5579663     12.14471   0.01090581  0.011413161            2    5.5869146     874.6237   0.98785341 
   92900   0.84650308   -6.6081104    12.066324  0.010823757  0.011410733            5    5.4569197    870.88693   0.99209205 
   93000   0.87198039   -6.5701354    12.139279   0.01087749  0.011408105            4    5.4938469    873.46627   0.98916241 
   93100   0.84280398   -6.5695252    12.173434  0.010896378   0.01140585            4    5.1753314    879.32611   0.98257062 
   93200   0.86238686   -6.5034408    12.213905  0.010920874  0.011403379            9     5.319413    881.67978   0.97994762 
   93300   0.84428177   -6.5081388    12.169893  0.010869858  0.011401135            6    5.7015678    874.88989   0.98755284 
   93400   0.83722665   -6.5476325    12.188462  0.010874788  0.011398786            3     5.670042    872.83861   0.98987372 
   93500   0.87466684   -6.5399188    12.210797  0.010883063  0.011396556            2    5.7400334    872.99921   0.98969161 
   93600   0.87428225   -6.5519278    12.206224  0.010867365  0.011394402            1    5.6719781    872.81514   0.98990034 
   93700   0.84676413    -6.526499    12.167874  0.010821659  0.011392123            3    6.0988978    868.27119   0.99508081 
   93800   0.87495958   -6.5002566    12.217054  0.010853815  0.011389976            3    6.1516923    869.54118   0.99362746 
   93900   0.87147024   -6.5282644    12.285059  0.010902608  0.011387997            9    5.9385515    870.83071    0.9921561 
   94000   0.83148003   -6.5341381    12.313345  0.010916086  0.011386276            4    5.8903535    870.08764   0.99300342 
   94100   0.87208404   -6.5830116    12.393511  0.010975479  0.011384592            8     5.273827    875.98147   0.98632223 
   94200   0.85061679   -6.5188057    12.464693  0.011026798  0.011383208            5    5.4853988    877.85504   0.98421716 
   94300   0.81712965   -6.4898814    12.524682  0.011068117   0.01138213           12    5.5385198    878.82247   0.98313372 
   94400   0.84821966   -6.5807692    12.513716  0.011046713  0.011381142            5    5.5635239    872.46308   0.99029978 
   94500   0.86511271   -6.5266683     12.52254  0.011042804  0.011380188            4    5.8840439    872.17723   0.99062435 
   94600   0.85697382   -6.5485052    12.525427  0.011033674  0.011379226            3    5.8833992    870.15484   0.99292673 
   94700   0.88173183    -6.545526    12.500221  0.010999842  0.011378261            4    6.1659224    866.56211   0.99704336 
   94800   0.80892552   -6.4926724     12.54212   0.01102507    0.0113773            8    6.2070962    869.62227   0.99353482 
   94900   0.87445673   -6.5115837    12.568765   0.01103685  0.011376446           11    5.9196726    872.80544   0.98991134 
   95000   0.85765088   -6.5800691    12.599401  0.011052106  0.011375487            6    5.2438879    877.16409   0.98499245 
   95100   0.81927285     -6.54893    12.636531  0.011073021  0.011374293            2    5.2469358    879.09571   0.98282814 
   95200   0.84293912   -6.5206701    12.649547  0.011072782  0.011373353            6    5.4912841    877.76718   0.98431568 
   95300   0.89183528   -6.5005076    12.658114  0.011068655  0.011372464            7    5.6167415    877.72628   0.98436155 
   95400   0.83590829   -6.5047374    12.687668  0.011082868  0.011371713            6     5.753304    874.23399   0.98829376 
   95500   0.85579352   -6.5379549    12.711944  0.011092447  0.011371064           12     5.577662    874.90697   0.98753357 
   95600   0.82489458   -6.5564712    12.753137  0.011116751  0.011370458           15    5.5245308      874.671   0.98779998 
   95700   0.81852765   -6.5468469    12.783907  0.011131929  0.011369914            5    5.5916787    873.80508   0.98877887 
   95800   0.86912635   -6.5215144     12.83992  0.011169032  0.011369663            4    5.5849894    876.94022    0.9852439 
   95900    0.8421391   -6.4899952    12.862922  0.011177374  0.011369623            5    5.8377873    875.36607   0.98701564 
   96000   0.84008128   -6.5393981    12.886976  0.011186611  0.011369594            8    5.6046928    875.06739   0.98735253 
   96100   0.83654983   -6.5798921    12.877039  0.011166354  0.011369437            7     5.570458    872.19341   0.99060597 
   96200   0.85453138   -6.5354668    12.839973  0.011122638  0.011369143            4    5.8203154    872.01114   0.99081303 
   96300   0.86860996   -6.5291966    12.850248  0.011119979  0.011368903           10    5.8033465    872.41936   0.99034941 
   96400   0.86500912   -6.4993725    12.857026  0.011114304  0.011368689            9    6.3118737    867.59199   0.99585982 
   96500   0.83182296   -6.5504498    12.888086  0.011129608  0.011368407            7    5.9991054    867.96625   0.99543041 
   96600   0.84654813   -6.5341257    12.919326  0.011145036  0.011368272            4    5.7986128    872.25764   0.99053303 
   96700   0.86271602   -6.5922965    12.876093  0.011096254  0.011367857            6    5.5900619    871.06983   0.99188374 
   96800   0.85894825   -6.5942716    12.821783  0.011038037  0.011367069            7    5.7272711    869.29221   0.99391204 
   96900    0.8245701   -6.5705119    12.851092  0.011051851  0.011366134            4    5.7523183    869.89984    0.9932178 
   97000   0.85171719   -6.5786364    12.910889  0.011091829  0.011365321            9    5.4494827    874.27579   0.98824651 
   97100   0.85714528   -6.6351239    12.902375  0.011073099  0.011364552            4    5.2335718    871.87097   0.99097232 
   97200   0.86104545   -6.6114577    12.903023  0.011062263  0.011363693            5    5.5451164    870.23667   0.99283336 
   97300   0.87197296   -6.6387863    12.944808   0.01108668  0.011362908            5    5.1557772    873.94022   0.98862598 
   97400   0.83896896   -6.5939482    12.938875  0.011070221  0.011362056            4    5.6052033    870.49054   0.99254381 
   97500   0.86185985   -6.5118715    12.950096  0.011068458  0.011361391            5    6.0052748    870.93936   0.99203233 
   97600   0.80363437   -6.5421583     12.97438  0.011077852   0.01136072            3    5.8135895    871.14745   0.99179537 
   97700   0.84975744   -6.5470906    13.012928  0.011099392  0.011360073            6    5.7744397    871.56283   0.99132268 
   97800   0.82348231   -6.5896425    13.044796  0.011115197  0.011359684           13    5.6810102    869.68746   0.99346035 
   97900   0.82029446   -6.6289167    13.063576  0.011119829  0.011359072            4    5.5529799    867.91327   0.99549118 
   98000   0.85049083   -6.5939773    13.140012   0.01117348  0.011358741            6    5.2419768    875.95385   0.98635334 
   98100   0.82726165   -6.5849296     13.11635  0.011141989  0.011358327           11    5.3287731    874.81461   0.98763782 
   98200   0.83481625   -6.6013421     12.99454  0.011027274  0.011357532            9    5.9006133    865.27015   0.99853207 
   98300   0.83595389   -6.5764249    13.100162  0.011105597  0.011356793            4    5.7937341    869.07797   0.99415706 
   98400   0.86407535   -6.5660614    13.153817   0.01113975  0.011356515            3    5.4615753    874.80902   0.98764414 
   98500   0.85306428   -6.5662698    13.066883  0.011054892  0.011355986            5    5.8098166    869.24038   0.99397132 
   98600    0.8422399   -6.6091496    13.123578  0.011091597  0.011355197            3    5.3976264    871.95081   0.99088159 
   98700    0.8635684   -6.5630653    13.133082  0.011088384  0.011354474            3    5.4365746    875.59583   0.98675665 
   98800   0.82453686   -6.5403385    13.124148  0.011069626   0.01135369            3     5.540194    875.16766   0.98723941 
   98900    0.8580525   -6.6146652    13.031074  0.010980008  0.011352622            4    5.6995986    868.05091   0.99533333 
   99000   0.81813579   -6.6468955    13.039411  0.010975935  0.011351202            3    5.5237098    866.74621   0.99683159 
   99100   0.82643836   -6.5675701    13.098647  0.011014671  0.011349979            4    5.7124957    870.62325   0.99239252 
   99200    0.8511383   -6.5557466    13.183057  0.011074477  0.011349131            2    5.5549471    874.15885   0.98837871 
   99300   0.80837499   -6.5691398      13.1788  0.011059751  0.011348288            8    5.5733719    871.84473   0.99100215 
   99400   0.84229254   -6.6134706    13.157109   0.01103044  0.011347241            5    5.3143779     873.0117   0.98967746 
   99500   0.87486109       -6.573    13.185188  0.011042871  0.011346131            3    5.3001332    876.96223   0.98521917 
   99600   0.82799689   -6.5030017    13.154423  0.011006044   0.01134509           12    5.9208228    872.11856   0.99069099 
   99700   0.79807488   -6.5254172    13.134599  0.010978434  0.011343993           15    6.0269646    868.30309   0.99504425 
   99800   0.86758136   -6.6162806    13.116176  0.010952051  0.011342616            7    5.7477621    866.43468   0.99719001 
   99900   0.82652613   -6.6055084    13.220229  0.011027885  0.011341561            3    5.5222181    870.20769   0.99286643 
  100000   0.85640566    -6.587637    13.274262  0.011061885  0.011340526           12    5.1275333    878.12336   0.98391643 
  100100   0.84126981   -6.5592276    13.257581  0.011036947  0.011339473           11    5.3785222    876.00752   0.98629291 
  100200   0.86607158   -6.5614541     13.21798  0.010992997   0.01133838           15    5.6738931    871.87297   0.99097005 
  100300   0.83153752   -6.6158059    13.178463  0.010949205   0.01133701           15    5.7574876    866.46331   0.99715705 
  100400   0.88998681   -6.6570782     13.23852  0.010988147  0.011335794            7    5.5641072    866.87482   0.99668369 
  100500   0.82760883   -6.6140465    13.264446  0.010998711  0.011334608            8    5.4274687    870.43997   0.99260147 
  100600   0.84780941   -6.5884761    13.298173  0.011015716  0.011333509            9     5.573839    871.12249   0.99182378 
  100700   0.89367894   -6.6092381    13.384639  0.011076331  0.011332602           12    5.2954736    874.51829   0.98797248 
  100800   0.86290755   -6.5669707    13.348052  0.011035095  0.011331984           17    5.7425821    870.78127   0.99221243 
  100900   0.84213839    -6.533681    13.359682  0.011033765  0.011331153            8    6.0747377    868.32471   0.99501948 
  101000    0.8745299   -6.5605357    13.374606  0.011035153  0.011330544            8    5.9578642    868.22099   0.99513834 
  101100   0.82472504   -6.5566089    13.401619  0.011046504  0.011329945            6    6.0994517    866.15003   0.99751772 
  101200   0.87492669   -6.5382802    13.412045  0.011044174  0.011329407           10    6.1051059    868.19335   0.99517003 
  101300   0.84306054   -6.5436961    13.439283  0.011055679  0.011328836           21      5.92885    869.57279   0.99359135 
  101400   0.85433781   -6.5772561    13.402408   0.01101447  0.011328068           10      5.80374    868.74232   0.99454117 
  101500   0.82326723   -6.6018009    13.390011   0.01099344  0.011327082           24    5.7813168    866.70821   0.99687529 
  101600   0.88681013   -6.6476332    13.435244  0.011019721  0.011326007           17    5.3099221     870.8545   0.99212899 
  101700   0.86036373   -6.5391741    13.545962  0.011099609  0.011325301           12    5.3666084    878.11493   0.98392588 
  101800    0.8477645   -6.5389772    13.569056  0.011107609  0.011324725            9      5.20323    880.65789   0.98108472 
  101900   0.82039519   -6.5617882    13.590978  0.011114637  0.011324013            9     5.098562    880.20183   0.98159305 
  102000   0.84267022   -6.5718536    13.588129  0.011101413   0.01132332           13    5.3000931    876.66596   0.98555212 
  102100   0.85920415   -6.5326475    13.600291  0.011100466  0.011322777           17    5.6735934    874.54387   0.98794358 
  102200   0.82818707   -6.4863128    13.537687  0.011038557  0.011322333           10     6.187991    869.61622   0.99354172 
  102300   0.86110154   -6.5074702    13.529694  0.011021256  0.011321639            6    5.8950311    872.88253   0.98982391 
  102400   0.86093016   -6.5740634    13.529395   0.01101025  0.011320799            8    5.6213006    870.99376   0.99197036 
  102500   0.85827638   -6.5884188    13.544654  0.011011914  0.011319778            9     5.383589    873.77433   0.98881367 
  102600   0.85463736   -6.5342435    13.595796  0.011042719  0.011318936           16    5.4477179    877.08899   0.98507678 
  102700   0.83427565   -6.5042583     13.60786  0.011041756  0.011318085            6    5.7460799    874.37314   0.98813648 
  102800   0.83190765   -6.5989763    13.621286  0.011041899  0.011317337            9    5.6416065     869.3876     0.993803 
  102900   0.82860145   -6.5724043    13.646328  0.011051448  0.011316576            5    5.5907447    871.96429   0.99086626 
  103000   0.85631498   -6.5607695      13.6723  0.011061731  0.011315883            5    5.6207141    872.44375   0.99032172 
  103100   0.87046901   -6.5589033    13.566577  0.010965549  0.011315073           10    6.0327028    866.69915   0.99688572 
  103200   0.85075362   -6.5607192    13.597981  0.010980282  0.011313988           13    6.0771488    866.97979   0.99656302 
  103300   0.83238062   -6.5581699    13.659718  0.011019457  0.011313044            5    5.9197936    868.64906   0.99464795 
  103400    0.8862205   -6.6498655    13.657028  0.011006631  0.011312186            4    5.4641955    869.24354    0.9939677 
  103500   0.87392938   -6.6124615    13.700924  0.011031339  0.011311295           12     5.546246    869.99112   0.99311358 
  103600   0.86771855   -6.5763686    13.749131  0.011059468  0.011310616            4    5.5575804    873.16177   0.98950736 
  103700   0.86746151   -6.5036577    13.704984  0.011013327  0.011310007            6    6.1421125    870.02732   0.99307227 
  103800   0.86104145   -6.5885495    13.655363   0.01096288  0.011309129            7    6.0538716    865.17962   0.99863656 
  103900   0.83817243   -6.5319743     13.72405  0.011007419  0.011308222            5     6.035963     868.9237   0.99433356 
  104000   0.82931327   -6.5199673     13.77148   0.01103484  0.011307512            7    5.7737845    874.14781    0.9883912 
Loop time of 190.154 on 12 procs for 100000 steps with 864 atoms

Performance: 90873.799 tau/day, 525.890 timesteps/s
99.4% CPU use with 12 MPI tasks x no OpenMP threads

MPI task timing breakdown:
Section |  min time  |  avg time  |  max time  |%varavg| %total
---------------------------------------------------------------
Pair    | 9.4673     | 10.22      | 10.802     |  13.0 |  5.37
Neigh   | 0.93248    | 0.97073    | 1.0132     |   2.7 |  0.51
Comm    | 7.693      | 8.3876     | 9.2345     |  16.9 |  4.41
Output  | 1.9356     | 1.9368     | 1.9443     |   0.2 |  1.02
Modify  | 166.49     | 166.79     | 167.1      |   1.5 | 87.71
Other   |            | 1.852      |            |       |  0.97

Nlocal:        72.0000 ave          78 max          67 min
Histogram: 1 0 2 3 1 2 2 0 0 1
Nghost:        1563.92 ave        1573 max        1552 min
Histogram: 2 0 2 0 1 0 1 1 2 3
Neighs:        8177.33 ave        8862 max        7361 min
Histogram: 1 1 2 0 0 2 1 4 0 1
FullNghs:      16355.5 ave       17711 max       15183 min
Histogram: 1 0 1 3 2 2 2 0 0 1

Total # of neighbors = 196266
Ave neighs/atom = 227.15972
Neighbor list builds = 5114
Dangerous builds = 0

#clear
#
#next RN
#
#jump SELF



Total wall time: 0:03:10
