
units lj                  # Use reduced LJ style units
atom_style atomic         # Uncharged point particles
atom_modify map hash      # Needed for indexing of clusters etc
                          # Used to be able to find where atoms are in relation to each other.

# Define a lattice with which to populate the simulation cell. With units
# set to 'lj' the second argument to the lattice command is the reduced
# density rho* and the spacings are multiples of that required to acheive
# that density. Also define a simulation cell called 'box' in lattice units
# and fill it with atoms. Here we're creating a box which is ten lattice
# constants in each direction.
lattice fcc 1.0 spacing 1 1 1                 # All equal sizes - gives the right reduced density.
Lattice spacing in x,y,z = 1.5874011 1.5874011 1.5874011

region box block 0 6 0 6 0 6 units lattice # Defines a region, "box", in lattice units
create_box 1 box                              # Creates a simulation box as specified above,
Created orthogonal box = (0.0000000 0.0000000 0.0000000) to (9.5244063 9.5244063 9.5244063)
  2 by 2 by 3 MPI processor grid
                                              # with one type of atom
create_atoms 1 box                            # Creates particles on lattice points
Created 864 atoms
  using lattice units in orthogonal box = (0.0000000 0.0000000 0.0000000) to (9.5244063 9.5244063 9.5244063)
  create_atoms CPU = 0.001 seconds


# Set the mass of the first (and only) atom type.
mass 1 1.0

# Lennard-Jones interactions between particles, 3.5 sigma cut-off. Apply
# long range tail corrections to energy and pressure and set all coefficients
# to unity since we work in reduced units here. Note that this doesn't shift
# the potential such that it goes to zero at the cutoff. That would require
# pair_modify('shift', 'yes').
pair_style lj/cut  3.5      # non-GPU version
pair_modify tail  yes
pair_coeff 1  1  1.0  1.0   # Intearaction between 1 and 1 set with epsilon = 1 and sigma = 1

write_data data.*
System init for write_data ...
Neighbor list info ...
  update every 1 steps, delay 10 steps, check yes
  max neighbors/atom: 2000, page size: 100000
  master list distance cutoff = 3.8
  ghost atom cutoff = 3.8
  binsize = 1.9, bins = 6 6 6
  1 neighbor lists, perpetual/occasional/extra = 1 0 0
  (1) pair lj/cut, perpetual
      attributes: half, newton on
      pair build: half/bin/atomonly/newton
      stencil: half/bin/3d
      bin: standard

#############################
#   M E L T   S Y S T E M   #
#############################

velocity all create 2.4 2750902 mom yes dist gaussian # Assign velocities
                                                    # Temperature 2.4, random number seed, zero linear momentum
						                                                        # Gaussian distribution

timestep 0.002   # simulation timestep
thermo 100       # output thermodynamic data every 100 steps

# Define a fix  in this case with index 1 applied to all
# particles in the simulation. This fix is for simulations
# in the anisotropic NPT ensemble. Note that we use the MTK
# correction.
fix 1 all npt temp 2.4 2.4 0.1 iso 5.68 5.68 0.5 mtk yes tchain 5 pchain 5 # Use NPT ensemble
                                                                         # Set temperature and pressure and damping
                                                                         # Numbers of thermostats in chain and in barostat
run 1000         # run for 10000 steps
Per MPI rank memory allocation (min/avg/max) = 3.633 | 3.633 | 3.634 Mbytes
Step Temp E_pair E_mol TotEng Press Volume 
       0          2.4   -8.3859253            0    -4.790092     -2.24275          864 
     100    1.3007594   -6.4407842            0   -4.4919034    5.3582762    891.69205 
     200    1.5828213   -6.0796178            0   -3.7081338    6.4338598    907.46239 
     300    1.7629056     -5.73851            0   -3.0972122    5.5953229    954.02439 
     400    1.8733232   -5.2785237            0   -2.4717912    6.0585808    994.36537 
     500      2.02574   -4.9360708            0   -1.9009777    5.7478153    1042.8978 
     600    2.2112838   -4.6895875            0   -1.3765009    5.7138268    1079.0368 
     700    2.3146746   -4.4629638            0  -0.99497044    5.6088298    1118.0222 
     800    2.4734008     -4.39503            0   -0.6892229    5.7937797    1123.7282 
     900    2.4206618   -4.2767239            0  -0.64993368    5.5531987    1146.9555 
    1000    2.3618098   -4.2459295            0  -0.70731524    5.7000582    1143.3852 
Loop time of 0.220262 on 12 procs for 1000 steps with 864 atoms

Performance: 784520.704 tau/day, 4540.050 timesteps/s
99.8% CPU use with 12 MPI tasks x no OpenMP threads

MPI task timing breakdown:
Section |  min time  |  avg time  |  max time  |%varavg| %total
---------------------------------------------------------------
Pair    | 0.067734   | 0.085575   | 0.12434    |   6.9 | 38.85
Neigh   | 0.011935   | 0.014098   | 0.018973   |   2.1 |  6.40
Comm    | 0.058521   | 0.10257    | 0.12214    |   7.2 | 46.57
Output  | 0.00021879 | 0.00022954 | 0.00031401 |   0.0 |  0.10
Modify  | 0.015336   | 0.01606    | 0.016694   |   0.4 |  7.29
Other   |            | 0.001725   |            |       |  0.78

Nlocal:        72.0000 ave          80 max          66 min
Histogram: 2 1 2 2 1 0 2 0 0 2
Nghost:        1314.75 ave        1327 max        1295 min
Histogram: 1 0 0 2 3 0 0 1 2 3
Neighs:        6211.67 ave        7136 max        5326 min
Histogram: 2 0 0 2 1 4 1 0 0 2

Total # of neighbors = 74540
Ave neighs/atom = 86.273148
Neighbor list builds = 80
Dangerous builds = 2

# Equilibrate just above the melting temperature to avoid step fn in T

fix 1 all npt temp 1.25 1.25 0.1 iso 5.68 5.68 0.5 mtk yes tchain 5 pchain 5
run 1000
Per MPI rank memory allocation (min/avg/max) = 3.634 | 3.634 | 3.634 Mbytes
Step Temp E_pair E_mol TotEng Press Volume 
    1000    2.3618098   -4.2459295            0  -0.70731524    5.7000582    1143.3852 
    1100    1.8617945   -4.5967525            0    -1.807293    5.9593679    1083.5566 
    1200      1.66126   -5.0091582            0   -2.5201524    5.9308167    1028.0056 
    1300    1.4533368   -5.3154554            0   -3.1379734    5.5185254    997.93023 
    1400    1.3100587   -5.5224566            0    -3.559643    5.2858775     978.0358 
    1500    1.3306301   -5.7450087            0   -3.7513736    5.2687861    956.68836 
    1600    1.2302857    -5.777427            0   -3.9341343     5.385203    950.58576 
    1700    1.2545134   -5.8251615            0   -3.9455694    5.6370291    940.07281 
    1800    1.2669685   -5.8434457            0   -3.9451925    6.1076728    931.13358 
    1900    1.2975362   -5.8185374            0   -3.8744858    5.5765884    942.23221 
    2000    1.2225624   -5.8503078            0   -4.0185867    5.1330896    948.19804 
Loop time of 0.16368 on 12 procs for 1000 steps with 864 atoms

Performance: 1055718.235 tau/day, 6109.481 timesteps/s
99.8% CPU use with 12 MPI tasks x no OpenMP threads

MPI task timing breakdown:
Section |  min time  |  avg time  |  max time  |%varavg| %total
---------------------------------------------------------------
Pair    | 0.06931    | 0.075282   | 0.082995   |   1.5 | 45.99
Neigh   | 0.0096777  | 0.010389   | 0.011209   |   0.5 |  6.35
Comm    | 0.05312    | 0.061607   | 0.068299   |   1.9 | 37.64
Output  | 0.00019285 | 0.00020057 | 0.00026442 |   0.0 |  0.12
Modify  | 0.014175   | 0.014379   | 0.014661   |   0.1 |  8.78
Other   |            | 0.001823   |            |       |  1.11

Nlocal:        72.0000 ave          79 max          65 min
Histogram: 1 1 0 4 0 1 1 3 0 1
Nghost:        1466.08 ave        1476 max        1447 min
Histogram: 1 1 0 0 2 0 0 4 1 3
Neighs:        7466.67 ave        8131 max        6694 min
Histogram: 1 0 2 0 3 1 3 0 0 2

Total # of neighbors = 89600
Ave neighs/atom = 103.70370
Neighbor list builds = 67
Dangerous builds = 0


# Small amount of linear quench

fix 1 all npt temp 1.25 ${temp} 0.1 iso 5.68 5.68 0.5 mtk yes tchain 5 pchain 5
fix 1 all npt temp 1.25 0.53 0.1 iso 5.68 5.68 0.5 mtk yes tchain 5 pchain 5
run 2000
Per MPI rank memory allocation (min/avg/max) = 3.634 | 3.634 | 3.634 Mbytes
Step Temp E_pair E_mol TotEng Press Volume 
    2000    1.2225624   -5.8503078            0   -4.0185867    5.1330896    948.19804 
    2100    1.2327229   -5.8722346            0   -4.0252903     5.384733    940.74455 
    2200    1.2022315   -5.9247016            0   -4.1234415    5.7081926    929.15452 
    2300    1.1725232   -5.9409945            0   -4.1842454    6.3201322    917.01522 
    2400    1.1473619   -6.0062245            0   -4.2871735    5.8500307    919.16615 
    2500    1.0598076   -6.0331673            0   -4.4452959    5.9735309    912.44057 
    2600    1.0499767   -6.1212136            0   -4.5480714    5.7447408    908.83823 
    2700    1.0566332   -6.2285741            0   -4.6454587    5.4323832    905.86416 
    2800   0.96353612   -6.2149506            0   -4.7713193     5.765641    900.04447 
    2900   0.93527689    -6.267892            0   -4.8666004     5.893383    893.02341 
    3000   0.90365581   -6.3137663            0   -4.9598515    5.9241602     888.9745 
    3100   0.86989045   -6.3458717            0   -5.0425463    5.9665683    884.70441 
    3200   0.87122051    -6.457939            0   -5.1526208    5.6790088    880.73767 
    3300   0.79515986   -6.5002591            0   -5.3088998     5.468532    879.16591 
    3400   0.78166157   -6.5887197            0   -5.4175844    5.3694142    873.89505 
    3500   0.75252423   -6.6704145            0   -5.5429346    5.4512111    866.90366 
    3600   0.70652514   -6.6879225            0   -5.6293614    5.7570791    859.18732 
    3700   0.70134323   -6.7967687            0   -5.7459715    5.7091763    852.23426 
    3800   0.62289974   -6.7860625            0   -5.8527943    6.1778006     846.6833 
    3900   0.60811839    -6.844768            0   -5.9336462    6.0571762    843.38668 
    4000   0.55596831   -6.8850258            0   -6.0520386     5.993295    840.96361 
Loop time of 0.38197 on 12 procs for 2000 steps with 864 atoms

Performance: 904783.613 tau/day, 5236.016 timesteps/s
99.9% CPU use with 12 MPI tasks x no OpenMP threads

MPI task timing breakdown:
Section |  min time  |  avg time  |  max time  |%varavg| %total
---------------------------------------------------------------
Pair    | 0.15376    | 0.17275    | 0.19419    |   3.1 | 45.23
Neigh   | 0.016395   | 0.017596   | 0.020851   |   1.0 |  4.61
Comm    | 0.13123    | 0.15596    | 0.17673    |   3.6 | 40.83
Output  | 0.00041243 | 0.00043438 | 0.00063109 |   0.0 |  0.11
Modify  | 0.029654   | 0.030362   | 0.030886   |   0.2 |  7.95
Other   |            | 0.004872   |            |       |  1.28

Nlocal:        72.0000 ave          74 max          70 min
Histogram: 1 0 2 0 0 6 0 2 0 1
Nghost:        1603.83 ave        1613 max        1585 min
Histogram: 1 0 1 0 1 1 1 1 4 2
Neighs:        8497.33 ave        9110 max        7718 min
Histogram: 1 1 1 1 0 3 0 2 1 2

Total # of neighbors = 101968
Ave neighs/atom = 118.01852
Neighbor list builds = 104
Dangerous builds = 0

#############################
# F R E E Z E  S Y S T E M  #
#############################

# Define solid atoms. This closely follows ten Wolde  Ruiz-Montero and Frenkel  Faraday Discuss  1996  104  93-110
# Compute components of the per-atom q6 vector
compute q6 all orientorder/atom degrees 1 6 components 6 nnn NULL cutoff 1.3 # compute the Q6 parameter.
                                                                             # Use all neighbours within 1.3 unit cell.

# get number of connections
compute coord_number all coord/atom orientorder q6 0.5

# An atom is solid if it has 8 or more connections (of a possible 14)
variable is_solid atom c_coord_number>=8
group solid dynamic all var is_solid    # Must be dynamic to update
dynamic group solid defined

# do clustering
compute cluster solid cluster/atom 1.3 # Create a cluster where all atoms within are solid and max 1.3 units from another member

# define chunks one chunk per cluster
compute clus_chunks solid chunk/atom c_cluster nchunk every compress yes  # Says which atoms are in which chunk

# count the size of each chunk
compute size_chunks solid property/chunk clus_chunks count


# Find the maximum entry in the vector of chunk sizes
variable max_n equal max(c_size_chunks)


# Thermo style which includes this variable
# thermo_style custom step temp pe vol v_max_n

thermo ${N}  # Print the thermo information every 100 steps
thermo 100  

# Reset the npt fix at a lower temperature (below freezing)

compute myRDF all rdf 100
fix 2 all ave/time 1 50 100 c_myRDF[*] file pcf.rdf mode vector


compute msd all msd com yes
variable twopoint equal c_msd[4]/6/(step*dt+1.0e-6)
fix 9 all vector 10 c_msd[4]
variable fit equal slope(f_9)/6/(10*dt)
thermo_style custom step temp pe c_msd[4] v_twopoint v_fit v_max_n press vol density


fix 1  all npt temp  ${temp} ${temp}  0.1  iso  5.68  5.68  0.5  mtk yes tchain  5  pchain  5
fix 1  all npt temp  0.53 ${temp}  0.1  iso  5.68  5.68  0.5  mtk yes tchain  5  pchain  5
fix 1  all npt temp  0.53 0.53  0.1  iso  5.68  5.68  0.5  mtk yes tchain  5  pchain  5

dump dmp2 all dcd ${N} traj.dcd
dump dmp2 all dcd 100 traj.dcd
dump dmp3 all dcd ${N} traj_unwrap.dcd
dump dmp3 all dcd 100 traj_unwrap.dcd
dump_modify dmp3 unwrap yes


# fix rnuntil all halt ${N} v_max_n >= 3980 error soft message no   # Stop when solidified

run 100000 # 5000000  # Run for this many steps
Neighbor list info ...
  update every 1 steps, delay 10 steps, check yes
  max neighbors/atom: 2000, page size: 100000
  master list distance cutoff = 3.8
  ghost atom cutoff = 3.8
  binsize = 1.9, bins = 5 5 5
  5 neighbor lists, perpetual/occasional/extra = 1 4 0
  (1) pair lj/cut, perpetual
      attributes: half, newton on
      pair build: half/bin/atomonly/newton
      stencil: half/bin/3d
      bin: standard
  (2) compute orientorder/atom, occasional
      attributes: full, newton on
      pair build: full/bin/atomonly
      stencil: full/bin/3d
      bin: standard
  (3) compute coord/atom, occasional
      attributes: full, newton on
      pair build: full/bin/atomonly
      stencil: full/bin/3d
      bin: standard
  (4) compute cluster/atom, occasional
      attributes: full, newton on
      pair build: full/bin/atomonly
      stencil: full/bin/3d
      bin: standard
  (5) compute rdf, occasional, copy from (1)
      attributes: half, newton on
      pair build: copy
      stencil: none
      bin: none
Per MPI rank memory allocation (min/avg/max) = 9.705 | 9.706 | 9.707 Mbytes
Step Temp PotEng c_msd[4] v_twopoint v_fit v_max_n Press Volume Density 
    4000   0.55596831   -6.8850258 7.8977394e-31 1.6453622e-32 8.3333333e+20           21     5.993295    840.96361    1.0273928 
    4100   0.55063844   -6.9805107  0.024516468 0.00049830214  0.022135758           11    5.4137406    841.50263    1.0267348 
    4200   0.51779262    -6.970492  0.036721637 0.00072860382  0.016453174            7    5.6339131    839.12927    1.0296387 
    4300    0.5318421   -6.9589237  0.044745553 0.00086716177    0.0121199           10    5.6394869    839.75685    1.0288692 
    4400   0.52164175   -6.9567498  0.058573587 0.0011093481  0.010905877           12    5.7451024    838.27102    1.0306929 
    4500   0.52107141   -6.9873314  0.071264827 0.0013197189  0.010664392            8    5.6375668    837.65987    1.0314449 
    4600   0.51517892   -6.9836893  0.077806899 0.0014095451  0.010292599           10     5.737612    836.85232    1.0324402 
    4700   0.56055935    -7.002759  0.080732025 0.0014314187 0.0093760518           17    5.7469453     835.5622    1.0340343 
    4800   0.53190575   -6.9818384  0.089610738 0.0015557418   0.00867339           19    5.6385566    837.71546    1.0313765 
    4900   0.53984777   -7.0154463  0.093132523 0.0015838863 0.0081173336           16     5.695607    835.03528    1.0346868 
    5000   0.54000355   -7.0360056  0.098096221 0.0016349369 0.0075827731           12    5.4574217    836.19618    1.0332503 
    5100   0.52554759   -7.0214777  0.099777328 0.0016303483  0.007070943           14     5.607295    836.06215     1.033416 
    5200   0.53121056    -7.017488   0.10026613 0.0016068289 0.0065289076           20    5.9640911    831.70351    1.0388317 
    5300   0.50858754   -7.0746207   0.10360616 0.0016290275 0.0060465375            8    5.3848333    835.02609    1.0346982 
    5400   0.52247542   -7.0309658   0.10391228 0.0016035843 0.0056036595            7    5.7125764    833.65585    1.0363989 
    5500   0.54101154   -7.0310202   0.10760149 0.0016303254 0.0052315245           17    5.8713321    832.22497    1.0381808 
    5600   0.52935077   -7.0133774   0.11219353 0.0016695465 0.0049358239           15    5.3033822    840.19962    1.0283271 
    5700    0.5109261    -7.010309   0.11772024 0.0017210559 0.0047269695           26    5.8939741    832.70023    1.0375883 
    5800   0.51135792   -7.0563304   0.12372242 0.0017776208 0.0045700654           31    5.3529189    836.41527    1.0329797 
    5900   0.53092946   -7.0354144   0.13215664  0.001866619 0.0044846324            8    5.9479016     830.6227    1.0401835 
    6000   0.51574334   -7.0505392     0.142634 0.0019810276 0.0044740546            6    5.6804803    832.16182    1.0382596 
    6100   0.54474795   -7.0502562   0.15135133 0.0020676409 0.0045258326            5    5.8197745    831.27593    1.0393661 
    6200   0.53121879   -7.0639525   0.16316979 0.0021931422 0.0045962505           19     5.705584    832.01034    1.0384486 
    6300   0.54850932   -7.0704553   0.16953915 0.0022425811 0.0046924496           19    5.7172726    831.58828    1.0389757 
    6400   0.57544235   -7.0756553   0.17267826 0.0022484146 0.0047574886           34    5.6482499    832.33848    1.0380392 
    6500   0.53236081   -7.0806818     0.177698 0.0022781793 0.0047916582           21    5.5166602    833.18754    1.0369814 
    6600   0.52427836   -7.0615785   0.18212464 0.0022995534 0.0048077754            8    5.7352082    831.46647    1.0391279 
    6700   0.56556484   -7.0440655   0.18704636  0.002326447 0.0048133858           11    5.8224206    831.99621    1.0384663 
    6800   0.53742131   -7.0587103   0.19137107 0.0023452335  0.004816199           20    5.6738904    832.37836    1.0379895 
    6900   0.50360893   -7.0566988   0.19111966 0.0023082083  0.004793212           11    5.5037513    834.46956    1.0353883 
    7000   0.54666137   -7.0569947   0.18854943 0.0022446359 0.0047335231           17    6.0992244    827.59247    1.0439921 
    7100   0.52449988   -7.0941296   0.18921421 0.0022208239 0.0046527066           12    5.4105458    832.93894    1.0372909 
    7200   0.50537659   -7.0856245    0.1876828 0.0021722545 0.0045493246            9    5.6639602    830.39379    1.0404702 
    7300   0.55057491   -7.0832823   0.19627128 0.0022405396 0.0044654778           21    5.7656803    829.82394    1.0411847 
    7400   0.54380458   -7.0547762     0.205489 0.0023140652 0.0044086144           20    5.7207279    831.99008    1.0384739 
    7500   0.53355596   -7.0313116   0.21630511   0.00240339 0.0043827834           30    5.9743998    830.60394     1.040207 
    7600   0.54394166   -7.0841424    0.2270051 0.0024890908  0.004385562           12    5.6043961    831.79139     1.038722 
    7700   0.51256449   -7.0556362   0.22245108  0.002407479 0.0043710638           24    5.8002358    830.36394    1.0405076 
    7800   0.50828107   -7.1054471   0.21956394 0.0023457685 0.0043281682           18    5.2923148     833.8774    1.0361235 
    7900   0.52034439   -7.0185138   0.22174633 0.0023390961 0.0042754979            7    6.1375988    829.29311    1.0418512 
    8000   0.52715681   -7.0900146    0.2197785 0.0022893593 0.0042173129            9    5.5499124    831.60398    1.0389561 
    8100   0.55311757   -7.0905123   0.21669756 0.0022293986 0.0041422917           12    5.7999808    829.10742    1.0420845 
    8200   0.54363236   -7.0788299   0.22061519 0.0022420241 0.0040675385           19    5.6915592    831.01041    1.0396982 
    8300   0.52786913   -7.1322942    0.2243683 0.0022526937  0.004001704           16    5.3667525    831.12958    1.0395491 
    8400   0.53843565   -7.1105453    0.2220909 0.0022032826 0.0039317846           18    5.7456009    828.31394    1.0430828 
    8500      0.52824   -7.0994216   0.22529802  0.002208804 0.0038628634           22    5.4655503    832.05432    1.0383937 
    8600   0.52938433   -7.0480342   0.22839303 0.0022131106 0.0037948572           17    6.0702071    828.03432     1.043435 
    8700   0.54056805   -7.0631696   0.23619182 0.0022623736 0.0037369728           19    5.3852618    835.95671    1.0335463 
    8800   0.52220855     -7.05412   0.24137497 0.0022857477 0.0036952301           14    6.0309761    827.97087     1.043515 
    8900   0.52247407   -7.1055313    0.2369581 0.0022187087 0.0036477061           28     5.419911    831.81047    1.0386981 
    9000   0.51980803   -7.1069083   0.23732893   0.00219749 0.0035904255           23    5.6370282    829.57943    1.0414916 
    9100   0.52224887   -7.0824816   0.24003377 0.0021981113 0.0035357249           16    5.7478613    829.50375    1.0415866 
    9200    0.5432801   -7.0465474   0.24292712 0.0022004267 0.0034843976           11    6.0845182    828.01235    1.0434627 
    9300    0.5207481   -7.0990595   0.25177681 0.0022560645 0.0034438606           23    5.5547168    830.57912     1.040238 
    9400   0.53100592   -7.1382047   0.25462033 0.0022572723 0.0034085108           15    5.6126999    827.85542    1.0436605 
    9500   0.53607177   -7.0902887   0.26151036 0.0022939504 0.0033781744           13     5.863348    827.74622    1.0437982 
    9600   0.52883674   -7.0929119    0.2669525 0.0023172959 0.0033550206           11    5.1913345    835.81069    1.0337269 
    9700   0.52527388   -7.1015577   0.26129223 0.0022447785 0.0033268784           15    5.9494504    826.41707     1.045477 
    9800   0.52868972   -7.1146234   0.26152754 0.0022238735 0.0032916102           13    5.4107132    831.59346    1.0389692 
    9900   0.53667218   -7.0752407   0.25518263 0.0021480018 0.0032514692           11    5.6918542     830.8624    1.0398834 
   10000   0.51516144    -7.095619   0.25224829 0.0021020689 0.0032006808           16    5.6622873    830.11813    1.0408157 
   10100   0.54034898   -7.0902234   0.25227252 0.0020814563 0.0031514161           16    5.8748465    827.40821    1.0442246 
   10200   0.52899816   -7.1223005   0.25404638 0.0020755422 0.0031005048           25     5.539082    829.65004     1.041403 
   10300   0.52594415    -7.082472   0.25753393 0.0020836078 0.0030550048           30    5.5710621    831.57136    1.0389968 
   10400    0.5362404   -7.0730089   0.25708997 0.0020600157 0.0030096461           19    5.6990092    830.89562    1.0398418 
   10500   0.51935526   -7.0912629    0.2634278 0.0020906967 0.0029679588           18    5.9975434     825.8958    1.0461368 
   10600   0.51826127   -7.1195111   0.26377762 0.0020737233  0.002930564            9    5.3072029    832.23233    1.0381716 
   10700   0.53436971   -7.0750593   0.26555505 0.0020681857 0.0028922453           14    5.9723853    827.58031    1.0440074 
   10800    0.5328165   -7.1034517   0.26956181 0.0020799521 0.0028583906           26     5.510674    831.44772    1.0391513 
   10900   0.54052928   -7.0957607   0.26684177 0.0020400746 0.0028229685           26     5.936692    826.38994    1.0455113 
   11000    0.5071063   -7.1312108    0.2700052 0.0020454939 0.0027883108           28    5.4043518    830.40928    1.0404508 
   11100   0.52193247   -7.0609698   0.26906781 0.0020200285   0.00275426           39     6.085074    827.12335    1.0445842 
   11200   0.53454841   -7.1222615   0.27251176 0.0020276172 0.0027208756           22    5.3980871    831.00457    1.0397055 
   11300   0.52138218   -7.0967448   0.27318605 0.0020146463 0.0026886233           42    5.8154145    828.09996    1.0433523 
   11400   0.53888428   -7.1045015   0.27500405 0.0020102634 0.0026566607           14     5.458559    831.85883    1.0386378 
   11500   0.52290856    -7.102068   0.27905281 0.0020221217  0.002628314           42    5.7790535    827.91144    1.0435899 
   11600   0.52620346   -7.1489432   0.28445214 0.0020434779 0.0026036973           45    5.5222822    827.84328    1.0436758 
   11700   0.52934305   -7.0911649    0.2868299 0.0020429479 0.0025793692           38    5.8746778    827.61641    1.0439619 
   11800    0.5566474   -7.1258644   0.28807529 0.0020344299 0.0025580247           25    5.5259279    830.27829    1.0406149 
   11900   0.54123888   -7.1176235   0.29227324 0.0020467313 0.0025368308           29    5.8090836    826.74482    1.0450625 
   12000   0.51815452   -7.1125818   0.29422768 0.0020432477 0.0025182698           38    5.6644249    828.49758    1.0428516 
   12100   0.52528827   -7.0799567   0.30325253  0.002088516 0.0025023485           44    5.4894994     833.1457    1.0370335 
   12200    0.5267398   -7.0598871   0.30125352 0.0020577426 0.0024870762           41    5.9912968    828.25342     1.043159 
   12300   0.50243184    -7.109217   0.29723734 0.0020138031 0.0024698114           30    5.3280939     832.9288    1.0373035 
   12400   0.50180143       -7.111    0.2941602  0.001976883 0.0024472833           41    5.7250091    827.90975     1.043592 
   12500   0.53186948    -7.129216    0.3049395 0.0020329299 0.0024278336           62    5.5434523    829.43362    1.0416747 
   12600   0.52600197   -7.1026047    0.3110918 0.0020574853 0.0024143144           41    5.7096142    828.86011    1.0423954 
   12700   0.52071905   -7.1265498   0.31508725 0.0020675016 0.0024026283           58    5.8680424    825.31229    1.0468764 
   12800   0.51184413   -7.1198782   0.31978921 0.0020819609 0.0023935311           48    5.6110742    828.86393    1.0423906 
   12900   0.53230508   -7.0900752   0.32577145 0.0021044666 0.0023848232           49    5.7758108    828.67006    1.0426345 
   13000   0.51434203   -7.1236974   0.32990958 0.0021148049  0.002379418           54    5.6073665    828.39154    1.0429851 
   13100   0.53073152    -7.106055   0.32897395 0.0020927095 0.0023739218           44    6.0632541    824.56417    1.0478263 
   13200   0.52949335   -7.1013656   0.32690904 0.0020638196 0.0023654889           42    5.5265128      831.512     1.039071 
   13300   0.51412226   -7.1064742   0.33085515 0.0020730272 0.0023565474           48    5.6381555    829.35245    1.0417766 
   13400   0.54218385   -7.1148161   0.32977424 0.0020508347 0.0023467985           64    5.7505775     827.6978    1.0438592 
   13500   0.54335994   -7.0756601   0.33248546 0.0020523793   0.00233725           59    5.8626727    829.18111    1.0419919 
   13600   0.52644614   -7.1143656   0.34120517 0.0020907179 0.0023295783           49    5.5248331    830.28857    1.0406021 
   13700   0.52155397   -7.1077241    0.3417186 0.0020785802 0.0023236348           63    5.7817098    827.47983    1.0441342 
   13800   0.54548124   -7.1358874   0.34276334 0.0020698268 0.0023165608           49    5.3535672    831.00809    1.0397011 
   13900   0.55443114   -7.0758086   0.34022112 0.0020396949 0.0023085482           55     5.986974    827.48694    1.0441252 
   14000   0.54202469   -7.1252425   0.34253614 0.0020389055 0.0022995298           51    5.5366721    829.64852    1.0414049 
   14100   0.53272256   -7.1141922   0.33908662 0.0020040579  0.002289897           52    6.0339553    824.09267    1.0484258 
   14200   0.53228011   -7.1074869   0.34194785 0.0020067361 0.0022794647           50    5.6280031    829.39654    1.0417212 
   14300   0.51291281    -7.063761   0.34324277 0.0020002492  0.002267603           47    5.8586182    829.17048    1.0420053 
   14400   0.52225243   -7.0977314   0.34915216 0.0020205564 0.0022584006           43    5.7394766    828.81887    1.0424473 
   14500   0.51206602   -7.1280898   0.34989501 0.0020108908 0.0022490276           53    5.7672192    826.44115    1.0454465 
   14600   0.52957254   -7.0972206   0.35698184 0.0020375675  0.002240827           48    5.7312215    828.96561    1.0422628 
   14700   0.52039463   -7.0952397   0.35630175 0.0020198511 0.0022341957           55    5.5464692    831.17727    1.0394894 
   14800    0.5054155    -7.113105   0.34356103 0.0019344652  0.002222966           29    5.9377581    824.81836    1.0475034 
   14900   0.52419234   -7.1526206   0.33711143 0.0018854106 0.0022067393           35    5.2911919    830.45582    1.0403925 
   15000   0.55099886   -7.1083441   0.33836703 0.0018798168 0.0021900684           27    5.7262803    828.37205    1.0430096 
   15100   0.54436936   -7.1133859   0.33034351 0.0018230878 0.0021721966           21    5.7311911    827.86856    1.0436439 
   15200   0.54292604   -7.1130342   0.33430828 0.0018328304 0.0021523523           39    5.8513136    826.58577    1.0452636 
   15300   0.52768819   -7.1256131   0.34205118 0.0018630238 0.0021365103           32     5.356032    831.25879    1.0393875 
   15400   0.51014369   -7.0746622   0.34308418 0.0018565161 0.0021207845           25    5.5919857    832.08021    1.0383614 
   15500   0.52923892   -7.0932986   0.34316304 0.0018449625 0.0021057274           28    5.7856362    828.45298    1.0429077 
   15600   0.54379929   -7.1384055   0.34278453 0.0018311139  0.002090359           38    5.6946026     827.0878    1.0446291 
   15700    0.5280499   -7.1458961    0.3477291 0.0018456958 0.0020753416           29    5.6148994     826.8158    1.0449728 
   15800    0.5255509   -7.1001149   0.35482403 0.0018714347 0.0020630261           32    5.7099606    829.14611    1.0420359 
   15900    0.5340137     -7.10471   0.36152024 0.0018947601 0.0020521883           29    5.6356686    829.90145    1.0410875 
   16000   0.55682897   -7.1478824   0.35995811 0.0018747817 0.0020421938           36    5.5879522    827.68617    1.0438739 
   16100   0.54592915   -7.1689946   0.36247065  0.001876142 0.0020321893           60    5.6643754    825.53964    1.0465882 
   16200   0.55886629   -7.1337688   0.36502311 0.0018776909 0.0020226112           29    5.5619337    828.99427    1.0422267 
   16300   0.53918715   -7.1335559   0.37431711 0.0019136866 0.0020144492           22    5.5771417    828.51534    1.0428292 
   16400   0.50972375     -7.13233   0.37320053 0.0018963441 0.0020072836           28    5.6615215    827.27769    1.0443893 
   16500   0.54203848   -7.1127478   0.37124192 0.0018749591 0.0019991678           69    6.0160049    824.59144    1.0477916 
   16600   0.52000035   -7.1452987   0.36706674 0.0018427044 0.0019898152           31    5.3904126    829.99611    1.0409687 
   16700   0.51613604   -7.1074091   0.37178774 0.0018552282 0.0019801177           36    5.9062795    825.83803      1.04621 
   16800    0.5405799   -7.1122685   0.37721244 0.0018710934 0.0019719134           24     5.719119    828.28379    1.0431207 
   16900   0.51841857    -7.120291   0.38510273 0.0018989286 0.0019650065           56    5.6529973    828.16028    1.0432763 
   17000      0.54034   -7.1433063   0.38959115 0.0019097605 0.0019603672           66     5.799784    825.57891    1.0465384 
   17100   0.52680412   -7.1728318   0.38708018 0.0018863556 0.0019542891           79    5.2117028    830.02957    1.0409268 
   17200   0.54594945   -7.1207718   0.38032484 0.0018426591 0.0019474804           82    5.9825554    824.25732    1.0482163 
   17300   0.54326728   -7.1046957   0.37765411  0.001819143 0.0019385662           93    5.6721538    829.29322     1.041851 
   17400   0.52883607   -7.1347833   0.37366011 0.0017895598 0.0019284526           58    5.4928215    829.28523    1.0418611 
   17500   0.54669155   -7.1512956   0.37643875 0.0017925654 0.0019182015           49    6.0153514    822.10425    1.0509616 
   17600   0.53893488   -7.1585548     0.386739 0.0018311505 0.0019097107           71    5.3167569    830.31359    1.0405707 
   17700   0.52668216   -7.0850126   0.39288783 0.0018497543 0.0019029062           32    5.7134312    829.90007    1.0410892 
   17800   0.51095732   -7.1081741   0.39180538 0.0018342948  0.001896505           32    5.7476317    827.87156    1.0436402 
   17900   0.53263027   -7.1211315   0.38070385 0.0017723643 0.0018880404           26    5.7920644    826.51542    1.0453525 
   18000   0.53196902   -7.0975938   0.37793255 0.0017496877 0.0018774706           17    5.5802149    830.67614    1.0401165 
   18100   0.48598093   -7.0986938   0.38460643 0.0017707478 0.0018673917           38    5.6772175    829.13054    1.0420555 
   18200   0.51072708   -7.1557535   0.39491641 0.0018082253 0.0018590074           19    5.3089647    829.97291    1.0409978 
   18300   0.52409264   -7.1014846   0.40455558 0.0018422385 0.0018535053           31    6.1025477    824.27644     1.048192 
   18400   0.52837643   -7.1319102   0.41444891 0.0018770331 0.0018497103           18     5.045585    834.76974     1.035016 
   18500   0.54243456   -7.0725854    0.4093084 0.0018437315 0.0018461728           32    6.2375289    824.58297    1.0478024 
   18600   0.53374207   -7.1368815   0.40650139 0.0018212428 0.0018411549           22    5.6872177    826.78797     1.045008 
   18700   0.54991447   -7.1130156   0.40396613 0.0018002055 0.0018357834           26    5.7457388    827.99306     1.043487 
   18800    0.5352044   -7.1065245   0.39415283 0.0017471313  0.001827777           31    5.7238334    828.61233    1.0427071 
   18900   0.52976384   -7.1223742   0.39405756 0.0017374672 0.0018187663           21    5.6046046    828.95409    1.0422773 
   19000   0.50558292   -7.1213304   0.40160556 0.0017614278 0.0018108619           24    5.5763432    828.97486    1.0422511 
   19100   0.50649376   -7.1204446   0.40317455 0.0017590512 0.0018038057           48    5.8521065    825.77255    1.0462929 
   19200   0.52440386   -7.1125536   0.40844563 0.0017727675 0.0017968159           37    5.4675229    831.14166     1.039534 
   19300   0.53642795   -7.0727743   0.41029837 0.0017715819 0.0017905663           64    5.5454693    832.92555    1.0373076 
   19400   0.54855334    -7.091749   0.41362031 0.0017767195 0.0017850193           38    5.8292505    828.52139    1.0428216 
   19500     0.524646   -7.1281624   0.41841511 0.0017880987 0.0017794685           41    5.5018397     829.8049    1.0412086 
   19600   0.54609314   -7.1152258   0.41809381 0.0017776097 0.0017746641           18    5.8373782    826.68445    1.0451388 
   19700   0.54565007   -7.0899192   0.41893479 0.0017721438 0.0017695117           33    5.5935661    831.07318    1.0396196 
   19800   0.53287567    -7.115932    0.4189094 0.0017630867 0.0017643674           42    5.6056909    829.15094    1.0420298 
   19900   0.53780776   -7.1144306   0.42085432 0.0017623715 0.0017588041           44    5.9926066    825.14176    1.0470928 
   20000   0.49639154   -7.1315401   0.43055985 0.0017939994 0.0017544322           33    5.0497464      834.687    1.0351186 
   20100   0.54720341   -7.0950477    0.4341502 0.0017999593 0.0017509782           53     5.951508    827.12466    1.0445826 
   20200    0.5304557   -7.1393379   0.44301585 0.0018276231 0.0017486931           70     5.563912    828.20757    1.0432167 
   20300   0.51765756   -7.1325049   0.44194672 0.0018142311 0.0017466822           51    5.7343525    826.60433    1.0452401 
   20400   0.52332978   -7.1089579   0.44286357 0.0018090831 0.0017441234           50    5.7065505    828.50536    1.0428418 
   20500   0.54541236   -7.1237024   0.44740118 0.0018187039 0.0017420685           35    5.4933307    830.36497    1.0405063 
   20600   0.51104362   -7.1147072   0.44807798 0.0018126131 0.0017400552           39    5.8943008    826.16783    1.0457924 
   20700   0.53010857   -7.1184932   0.45130094 0.0018168314  0.001738226           29    5.5058634    830.35911    1.0405137 
   20800   0.52569988   -7.1118722   0.45003748 0.0018030347 0.0017358867           27    5.5936095    829.76042    1.0412644 
   20900   0.50830592   -7.1284247    0.4609565 0.0018379445 0.0017345199           55    5.9535525    824.48428    1.0479278 
   21000   0.50434029   -7.1565186   0.45605072  0.001809725  0.001733346           38    5.3235938    829.82528     1.041183 
   21100     0.545476    -7.103406   0.45763452 0.0018074033  0.001731386           45    6.1953466    823.42598    1.0492746 
   21200   0.52158685   -7.1171249   0.46169052 0.0018148212 0.0017298529           36     5.602154    829.19789    1.0419708 
   21300   0.53183504    -7.112137   0.46325833 0.0018124347 0.0017280281           29    5.4135519    831.75107    1.0387723 
   21400   0.55530542   -7.1095244   0.46009529 0.0017916483 0.0017260449           29    5.4721244    831.76052    1.0387605 
   21500   0.53894074   -7.1269592   0.45968453 0.0017817229 0.0017236225           38    5.9789045    824.51657    1.0478868 
   21600   0.53540538   -7.1624172   0.46856541 0.0018077369 0.0017219056           33     5.367405    829.29391    1.0418502 
   21700   0.53990065   -7.1159174   0.46605799 0.0017897772 0.0017198564           42    5.5338687    830.18526    1.0407316 
   21800   0.54661773   -7.1019286   0.46713583 0.0017856874 0.0017178374           45    5.8574074    827.54846    1.0440476 
   21900   0.52111626   -7.1631663   0.46493455 0.0017691573 0.0017152666           49    5.2676401    829.77068    1.0412515 
   22000   0.52779447   -7.1117898   0.46429743 0.0017587023 0.0017121677           51    5.8761585    826.50188    1.0453697 
   22100   0.56456837   -7.1240846   0.45758869 0.0017254475 0.0017084073           48    5.4851489    830.86502    1.0398801 
   22200   0.54226936   -7.0863145   0.44786099 0.0016811598 0.0017030936           48    5.8737714    827.95598    1.0435337 
   22300   0.52203109   -7.1418171   0.45236771 0.0016904623 0.0016975596           50    5.4397606    829.45722     1.041645 
   22400   0.53734144   -7.1265484   0.45172573 0.0016805272 0.0016919857           33    5.7958464    826.25986    1.0456759 
   22500   0.54449113   -7.1222263   0.45259688 0.0016762847 0.0016862948           29    5.2990575    832.56051    1.0377624 
   22600   0.54246377   -7.1151672   0.45503467 0.0016778564 0.0016806847           49    5.9171275    825.88829    1.0461463 
   22700   0.52376559   -7.1203409   0.45224207 0.0016602131 0.0016752347           56    5.6932544    827.83981    1.0436802 
   22800   0.55097705   -7.1074186   0.45954435 0.0016796211 0.0016696984           45    5.7821403    827.90673    1.0435958 
   22900    0.5353481   -7.1475536   0.46068619 0.0016764417 0.0016650019           46    5.6554012    826.53158    1.0453321 
   23000   0.50966533   -7.1204436   0.46455449 0.0016831684 0.0016604109           39    5.6376213    828.17623    1.0432562 
   23100   0.55874003   -7.1355877   0.45996023 0.0016593082 0.0016554925           40    5.8349571     825.8001     1.046258 
   23200   0.52709755    -7.159743     0.459564 0.0016507327 0.0016499997           61    5.5946701    826.44151     1.045446 
   23300   0.52391068     -7.10925   0.45498261 0.0016272625 0.0016441648           49    5.7416486    827.97169    1.0435139 
   23400   0.53905233   -7.1191876   0.45705688 0.0016276954 0.0016380712           29    5.5601971     830.0852     1.040857 
   23500   0.56382614   -7.0943707   0.46575459  0.001651612 0.0016327913           42     5.741547    829.32615    1.0418097 
   23600   0.51279821   -7.1006209   0.46892957 0.0016558247   0.00162815           29    5.6128602    829.84056    1.0411639 
   23700   0.53017599   -7.0901389     0.463879 0.0016310794 0.0016230897           29    5.7595108    829.27878    1.0418692 
   23800   0.51749821   -7.1149416   0.46673599 0.0016342296 0.0016178603           31    5.6535539    828.59063    1.0427345 
   23900   0.52717842   -7.1521256   0.46444614 0.0016194077 0.0016126375           25    5.7995883    824.11421    1.0483984 
   24000    0.5175926   -7.1145035   0.46482894 0.0016139893 0.0016069622           44    5.5614738    829.44475    1.0416607 
   24100   0.51764249   -7.1006926   0.47413008 0.0016394539  0.001602329           22    5.7666914    828.33093    1.0430614 
   24200   0.51859599   -7.0961716   0.46771108 0.0016105753 0.0015974264           19    5.6705012    829.52646    1.0415581 
   24300    0.5432915   -7.1033678   0.46215279 0.0015848861 0.0015917685           18    5.7329626    828.48046    1.0428731 
   24400   0.49838888   -7.1209952   0.46370028 0.0015836758  0.001585785           13    5.5436169    829.43646    1.0416711 
   24500   0.53027071   -7.1338888   0.46220485 0.0015721253 0.0015798505           17     5.614747    827.91933    1.0435799 
   24600   0.53496183   -7.1197074   0.46696745  0.001581868 0.0015739833           27    5.8229504    826.63119    1.0452061 
   24700   0.54494507   -7.0752861   0.45816402 0.0015457625 0.0015677767           32    6.1088562     826.3248    1.0455937 
   24800    0.5304749   -7.1276227   0.46080997 0.0015484206 0.0015613541           39    5.6947272    827.30498    1.0443549 
   24900   0.51049671   -7.1350007   0.46143853 0.0015443056 0.0015549584           49    5.3571998     830.9328    1.0397953 
   25000   0.53104038   -7.0528017   0.46621603 0.0015540534  0.001548999           44    6.3891606    824.52552    1.0478754 
   25100   0.53564112   -7.1485878   0.46996922 0.0015603228 0.0015433921           56     5.239335    831.63828    1.0389132 
   25200   0.52857594   -7.1515485    0.4741744  0.001568037 0.0015380455           63    5.7736407    825.28336    1.0469131 
   25300   0.53374219   -7.1230691   0.47466806 0.0015634653 0.0015330984           40    5.8305418    825.90811    1.0461212 
   25400   0.52890229   -7.1300898   0.47652588 0.0015634051 0.0015280017           48    5.4951508    829.86164    1.0411374 
   25500   0.53124164   -7.1381527   0.47365182 0.0015478817  0.001522807           38    5.5724311     827.9546    1.0435355 
   25600   0.52499888   -7.1374491    0.4762266 0.0015502168   0.00151766           31    5.9170017    824.06922    1.0484556 
   25700   0.52747101   -7.1375173   0.48657725 0.0015777472 0.0015129935           35     5.369211     830.6302    1.0401741 
   25800   0.54602138   -7.0876428   0.49099228 0.0015858924  0.001509339           34    5.9883147    826.85456    1.0449238 
   25900   0.53939723   -7.1544076   0.49547798 0.0015942019 0.0015057054           42    5.5925529    827.06786    1.0446543 
   26000   0.54637302   -7.1716725   0.48720415 0.0015615517 0.0015020949           50     5.677619    824.96383    1.0473186 
   26100   0.51540434   -7.1618154    0.4798287 0.0015320201 0.0014974577           24     5.622736    825.69986    1.0463851 
   26200   0.56205011   -7.1932581   0.47107764 0.0014983385 0.0014917815           50    5.1234804    830.36195    1.0405101 
   26300   0.57343383   -7.1655247   0.46147835 0.0014622254 0.0014854466           38    5.8619578    823.91298    1.0486544 
   26400   0.52531669   -7.1631638   0.45900544 0.0014488808 0.0014783007           58    5.6402837    825.73656    1.0463386 
   26500   0.54140518   -7.1761111    0.4635415 0.0014576776 0.0014715037           30    5.5877035    825.56004    1.0465623 
   26600   0.53835787    -7.108789   0.46004996 0.0014412593 0.0014646249           38    5.8923718     826.4709    1.0454089 
   26700   0.50748027   -7.1336124   0.46489785  0.001450992 0.0014577139           62     5.610639    827.93498    1.0435602 
   26800   0.50580657   -7.1200781   0.47496915 0.0014768941 0.0014515983           59     5.879528     824.9019    1.0473973 
   26900    0.5364931   -7.1467458   0.48837619 0.0015129374 0.0014468918           59    5.7352676     825.4764    1.0466683 
   27000   0.50700755   -7.0689011   0.49221865 0.0015191933 0.0014427202           63    6.3335662    823.51811    1.0491573 
   27100   0.53179721   -7.1154699   0.49521538 0.0015228025 0.0014390234           49    5.4559792    831.32623    1.0393032 
   27200   0.53897029   -7.1474559   0.48449057 0.0014843461  0.001434431           25    5.6820845     826.2783    1.0456525 
   27300   0.52973216   -7.1512384   0.48127102 0.0014690812 0.0014294231           58    5.6110865    826.93604    1.0448208 
   27400   0.52575115   -7.1286284   0.48795792 0.0014840569 0.0014243832           75    5.6725294    827.41985    1.0442099 
   27500   0.54138385   -7.1276697   0.48767837 0.0014778132 0.0014197682           62    5.7090996    827.74059    1.0438053 
   27600   0.52211474   -7.1119456   0.48378454 0.0014607021 0.0014150024           63    5.6108366      829.218    1.0419455 
   27700   0.52395457   -7.1453383   0.48081209 0.0014464864 0.0014097653           52    5.6742575    826.66234    1.0451668 
   27800   0.53667554   -7.1193753   0.47374965 0.0014201128 0.0014039435           54    5.4805832    830.63099    1.0401731 
   27900   0.51301901   -7.1060997    0.4777845 0.0014270743 0.0013980675           68    5.6510732    828.85701    1.0423993 
   28000   0.52986336   -7.1127232   0.46944532 0.0013971587 0.0013920169           57    6.1572965     822.7892    1.0500867 
   28100   0.50143733   -7.2062807   0.47758919  0.001416338 0.0013860422           30    4.8648845    831.77448    1.0387431 
   28200   0.53811561   -7.1308905   0.48084142 0.0014209262 0.0013805377           48    5.9308661    824.39952    1.0480355 
   28300    0.5106623   -7.1174674   0.48887355  0.001439557 0.0013755899           35    5.6865632    828.13909     1.043303 
   28400    0.5693799   -7.1499802   0.48224964 0.0014150517 0.0013705507           49    5.4525532    829.15761    1.0420214 
   28500   0.53019745   -7.1400231   0.48105154 0.0014065834 0.0013653577           43    5.7043524    826.53054    1.0453334 
   28600   0.53797014   -7.1237718   0.47539717 0.0013851899 0.0013596313           38    5.6443572    828.48893    1.0428625 
   28700   0.54254054   -7.0971583   0.46821523 0.0013595099 0.0013535399           43    6.0787631    824.91221    1.0473842 
   28800   0.52199825    -7.143664   0.47174654 0.0013650073 0.0013471921           45    5.5463869    828.25132    1.0431616 
   28900   0.56135747   -7.1438498   0.48409984 0.0013959049 0.0013417143           62    5.7433055    826.26817    1.0456654 
   29000   0.54099477   -7.1375994   0.49590909 0.0014250261 0.0013372968           34     5.659159    827.60357    1.0439781 
   29100   0.51503151   -7.1330967   0.49756978 0.0014248848 0.0013331972           36    5.7160521    826.78697    1.0450092 
   29200   0.56318204   -7.1320507   0.48971967 0.0013976018  0.001328815           45    5.6397841    828.68348    1.0426176 
   29300   0.54086524   -7.1136521   0.48223465 0.0013715434 0.0013238119           61    5.7302757    828.56464    1.0427672 
   29400   0.52853399    -7.143237   0.47808084 0.0013551044 0.0013182802           70    5.8358203    824.43755    1.0479872 
   29500   0.52192883   -7.1509385     0.481106 0.0013590565 0.0013128048           57    5.7092033    825.69574    1.0463903 
   29600   0.53857742   -7.1138966   0.47528911 0.0013380887 0.0013071695           38    5.5797425    829.84186    1.0411622 
   29700   0.50346126   -7.0802075   0.47332989 0.0013280861 0.0013011666           36    6.0943402    825.34698    1.0468324 
   29800   0.53669169   -7.1620983   0.48101221 0.0013451124 0.0012954488           37    5.0893908    832.55261    1.0377723 
   29900   0.52493632   -7.0556429   0.48596693 0.0013544229 0.0012903457           39    6.2329764    825.71798    1.0463621 
   30000   0.51311594    -7.155348   0.49492656  0.001374796 0.0012857016           36    5.2761653    830.40136    1.0404607 
   30100   0.52773789   -7.1152941   0.49734382 0.0013769208 0.0012813798           38    6.0633177    823.74868    1.0488636 
   30200   0.51525446    -7.105344   0.49855496 0.0013757035 0.0012772967           34    5.7339602    828.15854    1.0432785 
   30300   0.51851578   -7.1131207   0.50419984 0.0013866882 0.0012734216           39    5.7005249    828.42019     1.042949 
   30400   0.51185591   -7.1461251     0.503812 0.0013810636 0.0012697133           31    5.7177603    825.50283    1.0466348 
   30500   0.52829875    -7.147895   0.51032638 0.0013943343 0.0012662327           52    5.6785368    826.02226    1.0459766 
   30600    0.5127377   -7.1322257   0.51249433 0.0013956817 0.0012629757           46    5.5283619    828.74141    1.0425447 
   30700   0.50899515   -7.1283469   0.51051582  0.001385765 0.0012596689           50     5.914717    824.00026    1.0485434 
   30800   0.53805807   -7.1618287     0.515097 0.0013936607 0.0012563891           61    5.5575759    826.62409    1.0452151 
   30900    0.5449206   -7.1438245     0.516696 0.0013934627 0.0012534266           55    5.6181762    827.32238    1.0443329 
   31000   0.53280319    -7.099821   0.51965213 0.0013969143  0.001250383           42    5.6581332     829.7006    1.0413395 
   31100   0.55753855   -7.1340035   0.52333713 0.0014022967 0.0012476264           61     5.928063    824.64141    1.0477281 
   31200   0.54115491   -7.1589053   0.53611986  0.001431944 0.0012455987           58    5.5446501    827.50088    1.0441076 
   31300   0.51711435   -7.1199639   0.52797104 0.0014056737 0.0012435498           89    5.7804017     826.5559    1.0453014 
   31400   0.52800376   -7.0827269   0.51763944 0.0013737777 0.0012407127           90    5.9693716    826.90475    1.0448604 
   31500   0.52377766   -7.1713394   0.52654677 0.0013929808  0.001237784           83    5.4512132    827.26576    1.0444044 
   31600   0.53886039   -7.1294772    0.5274628 0.0013909884 0.0012352936           87    5.9574077    824.50629    1.0478998 
   31700   0.53137003    -7.137012    0.5287732 0.0013900452 0.0012326965           92    5.3530235    830.73817    1.0400389 
   31800   0.52131723   -7.1183879   0.52554187 0.0013772061  0.001230126           96     5.749346    827.03998    1.0446895 
   31900   0.52110404   -7.1593569   0.52056971    0.0013599 0.0012271068           88    5.8409618    823.32796    1.0493996 
   32000   0.50849969   -7.1521322   0.51824989 0.0013496091 0.0012238421          107     5.490532     827.8336     1.043688 
   32100    0.5273373   -7.1222089   0.52255676 0.0013565855 0.0012207435          114    5.7631191    826.77028    1.0450303 
   32200   0.56288744   -7.1420554   0.51749497 0.0013392727 0.0012174917           99    5.7523629    826.10161    1.0458762 
   32300   0.53347853    -7.155754    0.5304208 0.0013684747 0.0012145333          100    5.5722941    826.93001    1.0448284 
   32400   0.52179501   -7.1404101   0.53373253 0.0013727688 0.0012120422           88     5.871903    824.38498     1.048054 
   32500   0.51495997   -7.1865381   0.53602939 0.0013744343 0.0012097239           74    5.4995016    825.55145    1.0465732 
   32600   0.53152476   -7.1253918   0.53431138 0.0013658266 0.0012071873           74    5.9689591    824.41015     1.048022 
   32700   0.54266919   -7.1738469   0.53872802 0.0013729052 0.0012049172           65     5.444174    827.43498    1.0441908 
   32800   0.49847512   -7.1278203    0.5370804 0.0013645335 0.0012025718           73    6.1052718    822.12742     1.050932 
   32900   0.53307996   -7.1564203   0.53560989 0.0013566613 0.0012001818           72    5.3038175    830.38917     1.040476 
   33000   0.52984799   -7.1495876   0.53283231 0.0013455361 0.0011975226           59    5.8479721    824.05207    1.0484774 
   33100   0.51685299   -7.1819927   0.52653084 0.0013256063 0.0011946315           88    5.4963971    825.90723    1.0461223 
   33200   0.51269507   -7.1156595   0.52713467 0.0013231292 0.0011914996           87    6.0336475    823.71363    1.0489082 
   33300   0.52744876   -7.1272427   0.53229051 0.0013320583 0.0011884381           94     5.651292    828.24574    1.0431687 
   33400   0.52653505   -7.1491656    0.5383466 0.0013431801 0.0011858007           87    5.4022583    829.29695    1.0418464 
   33500   0.53062755   -7.1394603   0.53781319 0.0013378437 0.0011832465           81    6.0498425    822.70674     1.050192 
   33600   0.55572569   -7.1631756    0.5332922 0.0013226493  0.001180521           78    5.3105325    829.99197    1.0409739 
   33700   0.53651806    -7.135082   0.53475709 0.0013223469 0.0011776421           63    5.8455888     825.0459    1.0472145 
   33800   0.55385888   -7.1411043   0.53496181 0.0013189393 0.0011749277           79    5.8699005    824.75604    1.0475825 
   33900   0.53207802   -7.1279702   0.53207318 0.0013079478 0.0011721235           96    5.7170224    827.19783    1.0444902 
   34000    0.5385049   -7.1653928   0.53113517 0.0013018019 0.0011692051           93    5.7051928    824.70609     1.047646 
   34100   0.50570912   -7.1690402   0.53232043 0.0013008808 0.0011660808          102    5.8080759    822.97972    1.0498436 
   34200    0.5137025   -7.1574467   0.54638112  0.001331338 0.0011634869          105    5.3107261    829.50088    1.0415902 
   34300   0.55756513   -7.1451409   0.54252215  0.001318081 0.0011610423          116    6.0692508    822.04229    1.0510408 
   34400   0.50962303   -7.1695138   0.54607677 0.0013228604 0.0011587482           90    5.6050173    825.56787    1.0465524 
   34500   0.50287278   -7.1547802   0.54317351 0.0013120133 0.0011562079          117    5.4797832    827.80688    1.0437217 
   34600   0.53048887   -7.1420327   0.54403748 0.0013103022 0.0011537096           84    5.7671753    825.52482    1.0466069 
   34700   0.53658757   -7.1229441   0.54534414 0.0013096641 0.0011512388           97    5.7961926    826.76091    1.0450421 
   34800   0.52313518   -7.1217205    0.5432604 0.0013009109 0.0011487699           99     5.708868    827.24003    1.0444369 
   34900   0.52863765    -7.121847   0.54290672 0.0012963388 0.0011460719           80    5.5926831    828.46208    1.0428963 
   35000   0.53734552   -7.1750201   0.54235307 0.0012913168 0.0011434018           78    5.6486866     825.0897    1.0471589 
   35100   0.55351396    -7.119365   0.55057836 0.0013071661 0.0011409171           78    6.0382316    824.01525    1.0485243 
   35200   0.52741806    -7.183413   0.55357223 0.0013105403 0.0011388415           56     4.824351    834.10509    1.0358407 
   35300   0.53811234   -7.1176849   0.55096115 0.0013006637  0.001136523           79    6.3026227    821.05815    1.0523006 
   35400   0.53135199   -7.1525728   0.56006499 0.0013184204 0.0011345265           63    5.3205989    830.24115    1.0406615 
   35500   0.54589025   -7.1120111   0.56117206 0.0013173053 0.0011326165           72    5.6695717    828.81435     1.042453 
   35600   0.52730079   -7.1145737   0.55874672 0.0013079277 0.0011306994           62    5.7865592    827.02928     1.044703 
   35700   0.54441681   -7.1598743   0.55442559 0.0012941774 0.0011286382           57    5.6175896    826.32972    1.0455875 
   35800   0.52109109   -7.1569838   0.54307712  0.001264146 0.0011261065           79    5.8332237    823.48363    1.0492012 
   35900   0.49753238   -7.1517027   0.53717342 0.0012469206 0.0011230867           85    5.6882744    825.27653    1.0469218 
   36000   0.53754663    -7.146225    0.5309317 0.0012290086 0.0011197586           84    5.7364031    825.56555    1.0465553 
   36100   0.50723547   -7.1593583   0.53454346 0.0012339415 0.0011163702           75    5.4942367    827.24239    1.0444339 
   36200   0.53577105   -7.1404282   0.52916943 0.0012181617 0.0011129678           63    5.8099875    825.01679    1.0472514 
   36300   0.55795555   -7.1657495   0.53195227 0.0012211944 0.0011095417          109    5.7027593    824.82406    1.0474961 
   36400   0.53882303    -7.175922   0.53009677 0.0012135915  0.001106164           98    5.5610012    826.04807     1.045944 
   36500   0.51727695   -7.1276637   0.52697469 0.0012031386 0.0011025954          108    5.9525163    824.04655    1.0484845 
   36600   0.55693353   -7.1551063   0.52920475 0.0012049288 0.0010990462           83    5.3626282    829.60241    1.0414627 
   36700   0.53792669   -7.1209555   0.52894224 0.0012010496 0.0010954915           77    5.5232367    830.06351    1.0408842 
   36800   0.52675429   -7.1431971   0.52950947 0.0011990703 0.0010919966           56    5.8824393    823.87664    1.0487007 
   36900   0.55786291   -7.1560989   0.52608283 0.0011880823 0.0010883772           68    5.5686408    827.34254    1.0443075 
   37000   0.54971529    -7.152165   0.53163193 0.0011973692 0.0010848728           56    5.7246749    825.20554    1.0470119 
   37100   0.55998957    -7.172638   0.53605413 0.0012040748 0.0010816367           70    5.4727803     826.9967    1.0447442 
   37200   0.51960409   -7.1736636   0.52835424 0.0011835892 0.0010783398           67    5.7743843    823.19946    1.0495634 
   37300   0.52460604   -7.1565458   0.52937276 0.0011826916 0.0010747808           74    5.7683097    824.24298    1.0482346 
   37400   0.53727264   -7.1396633    0.5323896 0.0011862513 0.0010713743           70    5.4808511    829.09227    1.0421036 
   37500   0.54586802   -7.1430255   0.53229499 0.0011828777 0.0010680421           53    6.1709207      821.151    1.0521816 
   37600   0.52766305   -7.1880332   0.52853457 0.0011713975 0.0010646915           76    5.1488115    829.72472    1.0413092 
   37700   0.53730648    -7.120613   0.53072177  0.001173125 0.0010611561           82    6.1523293    822.08278    1.0509891 
   37800   0.53540851   -7.1407361   0.52631605 0.0011603087 0.0010576842           87     5.642271    827.32038    1.0443354 
   37900   0.55006605   -7.1300284   0.52362352  0.001151327 0.0010540151           74     5.333896    831.49991    1.0390861 
   38000   0.55085879   -7.1525135   0.52547392 0.0011523551 0.0010503813           77    6.0357032    821.86276    1.0512704 
   38100   0.54485781   -7.1949465   0.53296087 0.0011657062 0.0010468621           39    5.2382714    828.43016    1.0429364 
   38200   0.56852176   -7.1200761      0.54234 0.0011831152 0.0010438544           73    6.0368161    824.03538    1.0484987 
   38300   0.53307951   -7.1362727   0.55175206 0.0012005049 0.0010411881           54    5.5850068    828.14069     1.043301 
   38400    0.5216083   -7.1503045   0.56224845 0.0012201572 0.0010388617           69    5.4942341    828.12199    1.0433245 
   38500   0.55087028   -7.1118442   0.56007957 0.0012122934 0.0010367925           68     6.154505    823.34733    1.0493749 
   38600   0.51222692   -7.1496404   0.56100926 0.0012111599 0.0010346678           60    5.2164986    831.23356    1.0394191 
   38700   0.53313953   -7.1388119   0.54561226 0.0011748757 0.0010321101           64    5.7850721    825.41775    1.0467427 
   38800   0.54527982   -7.1519745   0.55055159 0.0011824561 0.0010294483           68    5.7138289     825.5747    1.0465437 
   38900   0.53050512   -7.1997785   0.54781959 0.0011735638 0.0010267969           70    5.1708317    829.25195    1.0419029 
   39000   0.51869266   -7.0775257   0.54165382   0.00115738 0.0010238672           46    6.2059583    824.30462    1.0481562 
   39100   0.54900853   -7.1380982   0.54826866  0.001168518 0.0010211373           51     5.393096    830.53842     1.040289 
   39200   0.51002208   -7.1221851   0.54740655 0.0011637044 0.0010184613           75     6.123744    822.32605    1.0506781 
   39300    0.5269868   -7.1651341   0.55849303 0.0011842515 0.0010159131           39    5.2379352    830.11271    1.0408225 
   39400   0.54455114   -7.1142729   0.56188697 0.0011884242  0.001013767           89     6.027588    824.17367    1.0483227 
   39500   0.51553722   -7.1371348   0.55635636 0.0011737476 0.0010115279           65     5.599669    828.00216    1.0434755 
   39600    0.5426072   -7.1675855   0.55314395 0.0011640234 0.0010090316           67    5.7016842    824.85749    1.0474537 
   39700   0.54115184    -7.151876    0.5550768 0.0011651486 0.0010065353           40    5.8922935    823.82102    1.0487715 
   39800   0.56207795   -7.1370156   0.55387019 0.0011596947 0.0010040997           52    5.7485362    826.22359    1.0457218 
   39900   0.52080093   -7.1509936   0.55117182 0.0011511525 0.0010015331           53    5.4188017    829.28896    1.0418564 
   40000   0.51595856    -7.156159   0.56042215 0.0011675461 0.00099901763           42    5.6225951    826.13836    1.0458297 
   40100   0.51152829   -7.1449121   0.55701683 0.0011575578 0.00099674439           62    6.1741852    820.37852    1.0531724 
   40200   0.51842704   -7.1630607   0.55433142 0.0011491116 0.00099426257           63    5.2072044    830.83405    1.0399189 
   40300   0.54090175   -7.1126778   0.54613502 0.0011293114 0.0009915529           34    5.9671824    825.04932    1.0472101 
   40400   0.54218543   -7.1438864   0.55996648 0.0011550463 0.00098909757           31    5.6486733    826.55543    1.0453019 
   40500   0.51544969   -7.1740837   0.55911578  0.001150444 0.00098670792           57    5.4199711    827.47088    1.0441455 
   40600   0.53971339   -7.1147604   0.56703495 0.0011638648 0.00098448148           65    6.1182754    822.87391    1.0499786 
   40700   0.51322168   -7.1201278   0.58445669 0.0011966763 0.00098275264           69    5.2809934     832.4832    1.0378588 
   40800   0.51642392   -7.0990011   0.58621609 0.0011973368 0.00098141185           39    6.0164154    825.21691    1.0469974 
   40900   0.52607624   -7.1610416   0.57202834 0.0011655019 0.00097981084           19    5.7262125    824.80698    1.0475178 
   41000   0.54692494   -7.1500752   0.55824959 0.0011346536 0.00097762148           61     5.419351    829.41042    1.0417038 
   41100   0.52933656   -7.1396482   0.54354245 0.0011020731 0.00097486489           60    5.7430583     825.7698    1.0462964 
   41200   0.50131517   -7.1509197   0.54941487  0.001111276 0.0009719428           70    5.7516812    824.58832    1.0477956 
   41300   0.52506983   -7.1844412   0.55178318  0.001113364 0.00096926622           81    5.4589964    825.89618    1.0461363 
   41400   0.55118566    -7.139975   0.55273738 0.0011125953 0.00096658918           89    5.7307024    826.54368    1.0453168 
   41500   0.54101785   -7.1623443   0.55546794 0.0011153975 0.00096409938           94    5.2382049    830.79973    1.0399618 
   41600   0.50859694   -7.1292742   0.54351567 0.0010887734 0.00096131693           71    6.0815897    822.10234     1.050964 
   41700   0.52119673   -7.1501466   0.55357407 0.0011062631 0.00095851051           62    5.5116663    827.96242    1.0435256 
   41800   0.54561101   -7.1341963   0.54298259 0.0010825012 0.00095574674           43    5.6919792    826.89678    1.0448704 
   41900   0.54069497   -7.1614928   0.55085922 0.0010955832 0.0009528815           52    5.6927834    825.09292    1.0471548 
   42000    0.5410497   -7.1602512   0.55309494 0.0010974106 0.00095029553           64    5.5641269    826.77356    1.0450262 
   42100   0.54759365   -7.1195684   0.54876713 0.0010862374 0.00094756779           47    5.6949496    827.72447    1.0438256 
   42200   0.53350304   -7.1181043   0.55276787 0.0010915637 0.00094493592           47    5.8725155    825.57211     1.046547 
   42300    0.5118512   -7.1552585   0.55705674 0.0010974325 0.00094236822           60     5.585723    826.62907    1.0452088 
   42400   0.53266307   -7.1025212   0.56270335 0.0011059421 0.00093998127           22    6.0821582    824.43701    1.0479879 
   42500   0.54034838   -7.1614576   0.57130411 0.0011202041 0.00093792128           23     5.285767    830.20251    1.0407099 
   42600   0.51402534    -7.113953   0.57252384 0.0011199605 0.00093595928           20    5.8740012    826.11928    1.0458538 
   42700   0.53996105   -7.1220497   0.56986377 0.0011121463 0.00093387542           53    5.7426719    827.49694    1.0441126 
   42800   0.53133584   -7.1383842   0.56671907  0.001103425 0.00093186855           34    5.7501908    826.23907    1.0457022 
   42900   0.53808033   -7.1674457   0.56048883 0.0010887506 0.00092949095           42    5.2815134    829.83578    1.0411699 
   43000   0.47997198   -7.1056467   0.56089646 0.0010870086 0.00092714618           41    5.9202462    825.27802    1.0469199 
   43100   0.54477932   -7.1578643   0.56526143 0.0010929262 0.00092480141           26    5.4272249    828.62253    1.0426943 
   43200   0.54949991   -7.1223795   0.56984195 0.0010992322 0.00092272233           21    5.8778538    825.57938    1.0465378 
   43300   0.52451855   -7.1493226    0.5716735 0.0011002184 0.00092074586           30     5.454661    828.31002    1.0430877 
   43400   0.51959454   -7.1470164   0.57014281 0.0010947442 0.00091862126           24    5.5311662    827.71566    1.0438367 
   43500   0.53962135    -7.139523   0.57330495 0.0010982853 0.00091664777           26      5.97405      823.131    1.0496507 
   43600   0.53745347   -7.1639362   0.57805257 0.0011048405 0.0009147684           31    5.6323547    825.56279    1.0465588 
   43700   0.54452845   -7.1555496   0.58271669 0.0011112065 0.0009130516           37    5.8111193    824.36299     1.048082 
   43800   0.52342906   -7.1651335   0.59187182 0.0011260879 0.00091151406           30    5.1333105    831.70146    1.0388343 
   43900   0.54812521   -7.1034931   0.59292004 0.0011255126 0.00091014783           31    6.1676473    823.67253    1.0489606 
   44000   0.54062379   -7.1805142   0.59300689 0.0011231191 0.00090873478           40     5.298973    828.50801    1.0428384 
   44100   0.53981499   -7.1369636    0.5821488 0.0011000544 0.0009071586           69    6.2787356    820.27381    1.0533068 
   44200   0.56391918   -7.1704394   0.57730197 0.0010884275 0.00090533098           55    5.3960532    828.28096    1.0431243 
   44300   0.53010361   -7.1304505   0.57055575 0.0010732802 0.00090333436           61    5.8261485     825.5192    1.0466141 
   44400   0.54313612   -7.1487367   0.56426787 0.0010590613 0.00090116418           65    6.0048294    822.58774    1.0503439 
   44500   0.52211908   -7.2065545   0.56695454 0.0010617126 0.00089890586           76    5.4438243    824.83104    1.0474873 
   44600   0.51125577   -7.1306458   0.57073667 0.0010663989 0.00089671234           73    5.9669834     823.5613    1.0491022 
   44700    0.5251514   -7.1444366   0.58290079 0.0010866905 0.00089477924           59    5.3554402    829.95179    1.0410243 
   44800    0.5233338   -7.1148944   0.58298834 0.0010844277 0.00089306288           86    5.9421253    825.18856    1.0470334 
   44900   0.54288627   -7.1518371   0.59109147 0.0010970517 0.00089141414           96    5.3204623    830.03364    1.0409217 
   45000    0.5277064   -7.1636501   0.59088423   0.00109423 0.00088988369          111    5.8703872    822.77772    1.0501014 
   45100    0.5316256   -7.1780644   0.59359201 0.0010968071 0.00088842992           83    5.5409751    826.00675    1.0459963 
   45200   0.52922381   -7.0997937   0.59477907 0.0010965691 0.0008870457           65    6.3206455    821.45547    1.0517916 
   45300   0.52762225   -7.1625261   0.60484719 0.0011126696 0.0008857587           79    5.2447197    830.32331    1.0405585 
   45400   0.54108687   -7.1310696   0.60087158 0.0011029214 0.00088453999           85    6.1343099    821.94486    1.0511654 
   45500    0.5477105   -7.1340143     0.604755 0.0011076099 0.0008833065           74     5.404035    830.12639    1.0408054 
   45600   0.52444507   -7.1096011   0.60013566 0.0010967391 0.00088205959           59    6.0357621    823.83667    1.0487516 
   45700   0.50410069    -7.141672   0.58340313 0.0010638277 0.00088048235          108    5.6141134    826.56858    1.0452853 
   45800   0.54284278   -7.1434597   0.58422977  0.001063009 0.00087861946           76    5.6342799     826.7844    1.0450125 
   45900    0.5411649   -7.1521013   0.59284396 0.0010763325 0.0008770338           54     5.911146    823.33087    1.0493959 
   46000   0.53715454   -7.1803686   0.59451052 0.0010770118 0.00087552088           64    5.3505316    828.36711    1.0430158 
   46100   0.55275541   -7.1056621    0.5942443 0.0010741943 0.00087398867           56    6.1683014    823.36257    1.0493554 
   46200   0.52758193   -7.1713744   0.59612195  0.001075256 0.00087250272           66    5.2477842    829.96256    1.0410108 
   46300   0.56265488   -7.1632569   0.58377904 0.0010507182 0.00087081308           95    5.8825333    822.96711    1.0498597 
   46400   0.50847263   -7.1584087   0.59062223 0.0010607439 0.00086906055           73    5.6745187    825.15841    1.0470717 
   46500   0.51209646   -7.1344217    0.5985449 0.0010726611 0.00086751284           68    5.5777762    828.17727    1.0432549 
   46600   0.54360532   -7.1351475    0.6124872 0.0010952918 0.00086626403           46    5.5659821    828.77766    1.0424991 
   46700   0.52226349   -7.1553159   0.61277515 0.0010934603 0.00086522952           48    5.7166946    825.23616     1.046973 
   46800   0.55030499   -7.1594871   0.61299388 0.0010915133 0.00086409255           54    5.7316488    825.11643    1.0471249 
   46900    0.5342801   -7.1168923   0.61992037 0.0011014932 0.00086312413           58    5.7046229    827.67551    1.0438874 
   47000   0.54427049   -7.1384903   0.61455034 0.0010896282 0.0008621096           51    5.6718391    826.85771    1.0449198 
   47100   0.53124148   -7.1312389   0.61341463 0.0010853054 0.00086101076           45    5.9230505    824.50155    1.0479059 
   47200   0.52667584   -7.1580277    0.6159388 0.0010874626 0.00085994785           72    5.2586053    830.45158    1.0403978 
   47300   0.52363987    -7.145669   0.60704101 0.0010694873 0.00085875464           55    6.0326407    821.76167    1.0513997 
   47400   0.56213497   -7.1596431   0.60998574 0.0010724081 0.00085750311           43    5.5265478    827.46781    1.0441494 
   47500   0.53268597   -7.1417845   0.60527357 0.0010618834 0.00085620529           45    5.6954003    826.43729    1.0454514 
   47600   0.51600494   -7.1735859   0.60231812 0.0010544785 0.00085470901           41    5.3465318    828.39201    1.0429845 
   47700    0.5115437   -7.1485098   0.60194739 0.0010516202 0.00085318849           40      5.67867    825.90853    1.0461207 
   47800   0.54066746   -7.1099608   0.61216349 0.0010672306 0.0008519138           37    5.8138389    827.17502     1.044519 
   47900   0.53872349   -7.1574905   0.60984088 0.0010609619 0.0008507173           61    5.6965862     825.4776    1.0466668 
   48000    0.5129191   -7.1571037   0.60616055 0.0010523621 0.00084937784           44    5.4607398    827.98528    1.0434968 
   48100   0.55316151   -7.1423036   0.60169252 0.0010424333 0.0008479073           46    5.8700593    824.72835    1.0476177 
   48200    0.5239778   -7.1732733    0.6032905 0.0010430334 0.00084641924           54    5.3536333    828.15421     1.043284 
   48300   0.54530545   -7.1527444   0.59535155 0.0010271766 0.00084482952           65    5.8090048    824.42683    1.0480008 
   48400   0.58223985   -7.1505538   0.60084627 0.0010345149 0.00084324792           49    5.7769885    825.34724    1.0468321 
   48500   0.52675427   -7.1138557   0.60262909 0.0010354452 0.0008417435           75    5.8863708    825.99723    1.0460084 
   48600   0.53212955   -7.1578138   0.60312893 0.0010341717 0.00084019931           53     5.573423    826.50898    1.0453607 
   48700   0.52837325   -7.1720249   0.60677902  0.001038294 0.00083873341           53    5.6867052    824.66197     1.047702 
   48800   0.55390032   -7.1655634   0.61617006  0.001052203 0.00083746315           70     5.539474    827.12867    1.0445775 
   48900   0.53198473    -7.131986   0.62088203 0.0010580812 0.00083633198           59    5.7664501    826.06989    1.0459164 
   49000   0.51074233   -7.1591238    0.6260524  0.001064715 0.00083533784           68    5.5346289    827.15378    1.0445458 
   49100   0.54534394   -7.1857611   0.62264658 0.0010567661 0.00083429505          106    5.6105603    824.85376    1.0474584 
   49200   0.55638135   -7.1442573   0.61999331 0.0010501242 0.00083321031           62    5.8631824    824.56229    1.0478287 
   49300   0.52809478   -7.1620413    0.6237464 0.0010543381 0.00083208832           59    5.6975622    824.79628    1.0475314 
   49400   0.50518915   -7.1629829   0.62081719 0.0010472625 0.00083106116           97    5.6656034     824.9614    1.0473217 
   49500   0.53012581   -7.1491314   0.61989634 0.0010435965 0.00082988607           62    5.6129412    826.57521    1.0452769 
   49600   0.55290011   -7.1504047   0.62355923 0.0010476465 0.00082874215           56    5.5084788    827.84708     1.043671 
   49700   0.52573651   -7.1390836   0.62731987 0.0010518442 0.00082767424           79    5.8875015    824.19857    1.0482911 
   49800   0.53275962   -7.1836273   0.62980118 0.0010538842 0.0008267209           44    5.4565484    826.46172    1.0454205 
   49900   0.52802515    -7.177391   0.63549589 0.0010612824 0.00082579108           50    5.4230701    827.28999    1.0443738 
   50000    0.5324288   -7.1328628    0.6438347 0.0010730578 0.00082507324           49    5.8150756     825.3597    1.0468163 
   50100   0.56981722   -7.1369736   0.64431129 0.0010717087 0.00082444036           54    5.5873321    828.07825    1.0433797 
   50200   0.53451298    -7.142798    0.6365388 0.0010566713 0.00082373675           27    5.6331799     827.2909    1.0443727 
   50300   0.52717693   -7.1289189   0.63410191 0.0010505333 0.00082280002           89    6.1305755    821.99538    1.0511008 
   50400   0.48526859   -7.1691516   0.63396429 0.0010482214 0.00082187177           36    5.3419949    828.24291    1.0431722 
   50500   0.52017694   -7.1472122   0.63729835 0.0010516474 0.0008209539           45    5.7665761    825.30428    1.0468866 
   50600   0.54516239   -7.1681694   0.64359784 0.0010599437 0.00082018069           74    5.3389823    828.85788    1.0423982 
   50700   0.52250535   -7.1684057   0.63563205 0.0010447601 0.00081928471           52    5.6281486    825.33374    1.0468492 
   50800   0.52250955    -7.135541   0.63485985 0.0010414368 0.00081834611           41    5.9598617     823.2253    1.0495304 
   50900   0.54046777   -7.1503494   0.63407535 0.0010381063 0.0008173515           37    5.2745743     830.7232    1.0400576 
   51000   0.52523055   -7.1348269   0.63674077 0.0010404261 0.00081644919           41    6.0492556    822.43163    1.0505432 
   51100   0.55130604   -7.1630138   0.63459041 0.0010348832 0.00081554151           82    5.7494628    824.60137     1.047779 
   51200   0.53330213   -7.1654168   0.63697938 0.0010367503 0.00081457764           37    5.5182778    826.88025    1.0448913 
   51300    0.5080194   -7.1602497   0.63011282 0.0010235751 0.00081352538           67     5.833293    823.52466    1.0491489 
   51400   0.50449228   -7.1919186   0.62340244 0.0010107043 0.00081229889           92    5.4960345    825.18727    1.0470351 
   51500   0.54563971   -7.1703567   0.61960063   0.00100259 0.00081099301           56    5.7219821    824.35906     1.048087 
   51600   0.52075383   -7.1663972   0.62120129  0.001003232 0.00080963675           91    5.3016701    829.28192    1.0418652 
   51700    0.5228572   -7.1381083   0.62375916 0.0010054145 0.00080833903          104    5.6603631    826.96345    1.0447862 
   51800   0.54654402   -7.1512077   0.62444925 0.0010045837 0.00080710296           92    5.7070468    826.06343    1.0459245 
   51900   0.53614307   -7.1783651   0.63083383 0.0010128995 0.00080592263           83    5.5026884    826.32765    1.0455901 
   52000   0.54101049   -7.1489839   0.63756921 0.0010217455 0.00080488971           61     6.151938    820.63685    1.0528408 
   52100   0.55558937   -7.1516265   0.64231871 0.0010273812 0.00080396929           47    5.3594342    829.94709    1.0410302 
   52200   0.51243552   -7.1319094   0.63719075 0.0010172266 0.00080298676           45    5.7638305    825.76412    1.0463036 
   52300   0.51025894   -7.1496371   0.63734414  0.001015526 0.00080196124          108    5.8311895    824.06398    1.0484623 
   52400    0.5240172   -7.1497026   0.64716454 0.0010292057 0.00080105346           43    5.4431158    828.33924    1.0430509 
   52500   0.55243254   -7.1141754   0.64431933 0.0010227291 0.00080016753          106    6.0341134    824.51643    1.0478869 
   52600   0.52518069   -7.1654949    0.6456608   0.00102291 0.00079932501          136    5.5391102    826.32592    1.0455923 
   52700   0.52028996   -7.1658324   0.63619992 0.0010060087 0.00079830285          114    5.6964164    824.30211    1.0481594 
   52800   0.54800382   -7.2003689   0.63145182 0.00099660956 0.0007971245          138    5.1510651    829.03046    1.0421812 
   52900   0.56976099   -7.1028422   0.63668978  0.001002977 0.00079602234           69    6.1809234    823.38455    1.0493274 
   53000   0.54105484   -7.1406727   0.64752823 0.0010181261 0.00079505924           60    5.6622807    826.85923    1.0449179 
   53100   0.52519863   -7.1537438   0.65147646  0.001022405 0.00079424968          152    5.8835321    823.23859    1.0495135 
   53200   0.49393445   -7.1380376   0.65093208 0.0010196304 0.0007934246          151    5.9583528    822.98778    1.0498333 
   53300   0.54540127   -7.1939289   0.65355422 0.0010218171 0.00079262428          148    5.3610933    826.81309    1.0449762 
   53400   0.54362839   -7.1682275   0.65457042 0.0010214894 0.00079184868          158    5.8393691    822.92033    1.0499194 
   53500    0.5207563   -7.2048574   0.65700075 0.0010233656 0.00079114144          132     5.409427    825.41019    1.0467523 
   53600    0.5481917   -7.1597749   0.65621211 0.0010202303 0.00079034915          104    5.7851781    824.45471    1.0479654 
   53700   0.53300174     -7.15477   0.65394811  0.001014817 0.0007896091           96    5.2196991    831.47696    1.0391148 
   53800   0.52696251   -7.1559829   0.63825025 0.00098861562 0.00078859167          127    5.7926873    824.26251    1.0482097 
   53900   0.51967074    -7.158219   0.63295219 0.00097859026 0.00078742059          114    5.6074345    826.57638    1.0452755 
   54000   0.53075375   -7.1941647    0.6429205 0.00099216126 0.00078626884          145    5.4571317    825.75117      1.04632 
   54100   0.50922346   -7.1683682   0.64496031 0.00099346935 0.00078526114          152    5.8781113    821.97811    1.0511229 
   54200    0.5196001   -7.1471645   0.65391811 0.0010054091 0.00078431613           77    5.6561415    826.09353    1.0458864 
   54300   0.52772363   -7.1646925    0.6543363 0.0010041994 0.0007835122          124    5.5829863    826.13067    1.0458394 
   54400   0.55786006    -7.147417   0.66391668 0.0010170292 0.00078273416          150    5.5713001    827.90171    1.0436021 
   54500   0.54085147   -7.1287302   0.65888501 0.0010074694 0.00078212831          160     5.951425    823.97793    1.0485718 
   54600   0.53722889   -7.1968637   0.64975701 0.00099169263 0.00078124514          131    5.3963615    826.23199    1.0457111 
   54700   0.52315037    -7.161173    0.6451385 0.00098284353 0.00078022263          136    6.1104564    820.40733    1.0531354 
   54800   0.54421496   -7.1751423   0.64601188 0.00098237815 0.00077918384          120    5.1631709    830.35165     1.040523 
   54900    0.5388994   -7.1625713   0.64526197 0.00097945046 0.00077816344          141    5.9550004    822.44406    1.0505274 
   55000   0.54087171   -7.2103861   0.65267968 0.0009889086 0.00077715112          159    5.4108223    825.65303    1.0464444 
   55100   0.55694069   -7.1679108   0.65021181 0.00098338143 0.00077618939          156    5.7328077    824.35424    1.0480931 
[...]
   89500   0.54065448   -7.5182965    1.1212963 0.0010440375 0.00074722284          850    5.6439954    803.33355    1.0755184 
   89600   0.52851886   -7.5006517    1.1146421 0.0010366835 0.00074806118          855    5.7668335    802.77812    1.0762625 
   89700   0.51165897   -7.5253305    1.1042042 0.0010258307 0.00074883643          850    5.6089491    802.77657    1.0762646 
   89800   0.53541644   -7.5201731    1.1090503 0.0010291855 0.00074959555          847    5.9223629    800.14563    1.0798034 
   89900    0.5493079   -7.5227652    1.1082793  0.001027326 0.00075035464          860    5.7491515    802.35506      1.07683 
   90000   0.52882183   -7.5556405     1.118357 0.0010355157 0.00075114256          857    5.4839061    802.56638    1.0765465 
   90100   0.55020409    -7.527847    1.1279566 0.0010432451 0.00075196239          853    5.7577767    801.53871    1.0779267 
   90200   0.50938096   -7.4847171    1.1417016 0.0010547871 0.00075287159          850    5.5999049    805.33655    1.0728434 
   90300   0.50408641   -7.5040937    1.1391366  0.001051252 0.00075379985          853    5.8668857    801.16522    1.0784292 
   90400   0.53110351   -7.5203669    1.1338419 0.0010452082 0.00075466524          861    5.7090065    802.27393    1.0769389 
   90500   0.53678585   -7.4974464    1.1352719 0.0010453701 0.00075552295          853    5.8172869    802.39245    1.0767798 
   90600   0.50808667   -7.5135487    1.1381779 0.0010468891 0.00075636641          858    5.3330072    806.54451    1.0712366 
   90700   0.50504417   -7.4980375    1.1181867 0.0010273674 0.00075715396          854    6.1980769    797.97868    1.0827357 
   90800   0.52155504   -7.5140119    1.1189088 0.0010268987 0.00075786376          857    5.3791817    806.13895    1.0717755 
   90900   0.54666387   -7.4924438    1.1096307 0.0010172632 0.00075852518          851    5.8263008    802.69688    1.0763714 
   91000   0.51096583   -7.5327615    1.1189827 0.0010247095 0.00075920247          860    5.7018303    801.49673    1.0779832 
   91100   0.52519352   -7.5281272    1.1257352 0.0010297614 0.00075989898          855    5.4971504    804.03709    1.0745773 
   91200   0.57042033   -7.4845186    1.1315987   0.00103399 0.0007606397          855     6.180172    799.63877    1.0804879 
   91300   0.52827972   -7.5197897    1.1314964 0.0010327641 0.00076140532          856    5.5129885    804.19184    1.0743705 
   91400   0.53712957   -7.5057613    1.1396036 0.0010390259 0.00076217082          851    5.8147965    802.01929    1.0772808 
   91500    0.5132207    -7.512139    1.1398957 0.0010381564 0.00076294866          859    5.6406724    803.20604    1.0756891 
   91600   0.53465791   -7.5198454    1.1223744 0.0010210829 0.00076367982          856    5.9741564    799.76461    1.0803179 
   91700   0.51643701   -7.5170285    1.1170702 0.0010151492 0.0007642904          850    5.4783309    804.97046    1.0733313 
   91800   0.54488081   -7.4729912    1.1264892 0.0010225937 0.00076489169          852    5.5501796    806.72575    1.0709959 
   91900   0.53892976   -7.4992425    1.1307078 0.0010253063 0.00076556578          850    5.8812065    801.66431    1.0777578 
   92000   0.53037927   -7.5540985    1.1394171 0.0010320807 0.00076625581          850    5.2439191    805.40591     1.072751 
   92100   0.49137976   -7.5159055    1.1411086 0.0010324906 0.00076694919          852      5.95039    799.43473    1.0807636 
   92200    0.5099201   -7.5061142    1.1588999 0.0010474511 0.00076773372          852    5.5023782    805.27583    1.0729243 
   92300   0.52210717   -7.4722058    1.1432709 0.0010322056 0.00076850773          842    6.0971519    800.80116    1.0789195 
   92400   0.52376408   -7.5448925    1.1313425 0.0010203306 0.00076916353          850    5.6458164    801.39205     1.078124 
   92500   0.51153999   -7.5171588    1.1247275  0.001013268 0.00076975341          849    6.0355408    798.73399    1.0817118 
   92600   0.53591525   -7.5620031    1.1335848 0.0010201447 0.00077034143          848    5.1525328    805.78851    1.0722416 
   92700   0.52022989   -7.5165642     1.140674 0.0010254171 0.00077097445          853    5.8777972    800.80189    1.0789185 
   92800   0.52716121   -7.5869901    1.1445378 0.0010277818 0.00077163814          853    5.2199085     803.6576    1.0750847 
   92900   0.53985576   -7.5229194    1.1498673 0.0010314562 0.00077231347          843    5.9510026    800.13007    1.0798244 
   93000   0.52269338   -7.5254467    1.1462763 0.0010271293 0.00077299651          840    5.4625424    804.86209    1.0734758 
   93100   0.53398861   -7.5540298    1.1385634 0.0010191223 0.00077361907          845    5.7674141     799.9653    1.0800468 
   93200   0.55100031   -7.5423379    1.1383688 0.0010178548 0.00077420884          847     5.837434    800.13776    1.0798141 
   93300   0.52579788     -7.53541    1.1452108  0.001022875 0.00077480875          844     5.454643    804.44727    1.0740294 
   93400   0.52016344   -7.5386639    1.1392931 0.0010164999 0.00077539903          849    5.7719763     800.6918    1.0790669 
   93500   0.52792549   -7.5052121    1.1460123 0.0010214013 0.00077598834          852    5.5089883    805.55002    1.0725591 
   93600   0.53891319   -7.4883829    1.1477788 0.0010218828 0.00077659593          851     5.689904    804.48027    1.0739853 
   93700   0.52875662   -7.5538418    1.1341106 0.0010086363 0.00077714016          856    5.6446627     801.1841    1.0784038 
   93800   0.50314583   -7.5109358    1.1384602 0.0010114252 0.0007776646          854    6.0023421    799.55594    1.0805998 
   93900   0.52885991   -7.5388898    1.1377438 0.0010097122 0.00077817301          854    5.4115272    804.86914    1.0734664 
   94000   0.51535789   -7.5581981    1.1397492 0.0010104159 0.00077867319          852    5.2562295    804.78988    1.0735721 
   94100   0.52885711    -7.517193    1.1363043 0.0010062914 0.00077919026          850     6.016827    799.74449     1.080345 
   94200   0.54999174   -7.5392256    1.1462124 0.0010139884 0.00077969475          853    5.3883495    805.21717    1.0730025 
   94300   0.53279162    -7.524072     1.144724 0.0010115977 0.00078023028          860    6.0319217    798.80484    1.0816159 
   94400   0.53564318   -7.5487002    1.1368757 0.0010035979 0.00078071868          849    5.4755382    803.23738    1.0756471 
   94500   0.54407042   -7.5442307    1.1508255 0.0010148373 0.00078121584          852    5.7427446    800.63805    1.0791393 
   94600   0.53974278   -7.5524556    1.1492936 0.0010124151 0.0007817539          848    5.6487454    801.49781    1.0779817 
   94700   0.54025757    -7.577075    1.1487848 0.0010108983 0.00078227674          853    5.3523054     803.2652    1.0756099 
   94800   0.55037943    -7.566946     1.135492 0.00099814696 0.00078272748          852    5.8025366    798.69331    1.0817669 
   94900   0.55761086   -7.5498357    1.1346105 0.00099632116 0.00078313225          855    5.3523068    804.68739    1.0737089 
   95000   0.54556014   -7.5320143    1.1364241 0.00099686321 0.00078353983          854    6.0812241    797.92823    1.0828042 
   95100   0.51440056   -7.5462616    1.1383595 0.00099751094 0.00078395014          855    5.6272218     801.2622    1.0782987 
   95200   0.55179462   -7.5586913    1.1362587 0.0009946242 0.00078434932          855    5.5700003    801.58309     1.077867 
   95300   0.50905951   -7.5552523     1.144438 0.0010007327 0.00078478175          854    5.7424875    799.60521    1.0805332 
   95400   0.51418544   -7.5636586    1.1526864 0.0010068888 0.00078522767          855    5.5723568    801.05772     1.078574 
   95500   0.52250089   -7.5389223    1.1603423 0.0010125151 0.00078572883          856    5.8780423    799.29011    1.0809592 
   95600   0.56663746   -7.5782831    1.1438895 0.00099711426 0.00078617629          852    5.3814596    802.84077    1.0761785 
   95700    0.5308768   -7.5541074    1.1480045 0.0009996556 0.00078659041          850    5.9175396    798.04385    1.0826473 
   95800   0.51479251   -7.5847508    1.1513418 0.0010015151 0.00078700952          860    5.4129898    801.44361    1.0780546 
   95900   0.56043404   -7.5676786    1.1471595 0.00099683657 0.00078741132          859    5.6584673    800.46458    1.0793732 
   96000   0.53588506    -7.542137    1.1330925 0.00098358727 0.00078776584          856    5.9670354    798.17599     1.082468 
   96100   0.54192432   -7.5442628    1.1411331 0.00098953619  0.000788088          851    5.5932506    802.25221    1.0769681 
   96200   0.52767476   -7.5335422    1.1451924 0.00099202389 0.0007884488          858    5.6268948    802.37039    1.0768094 
   96300   0.53098683   -7.5728065    1.1466054 0.00099221654 0.00078881589          859    5.6688946    799.49166    1.0806867 
   96400   0.52849492   -7.5497179    1.1386649 0.00098432306 0.00078915634          857    5.7708852    799.88475    1.0801556 
   96500   0.53528327   -7.5460044    1.1550306 0.00099743579 0.00078950401          859    5.5266141    802.70618     1.076359 
   96600   0.52714061   -7.5553914    1.1523409 0.00099408294 0.00078989592          859    5.5812874    801.25321    1.0783108 
   96700   0.51605689   -7.5366029    1.1445633 0.00098635239 0.00079023099          857    5.6988453    801.35302    1.0781765 
   96800   0.52435419   -7.5507827    1.1313594 0.00097396642 0.00079050379          855    5.5483051    802.29282    1.0769135 
   96900   0.53455815   -7.5335232    1.1284858 0.00097049005 0.00079071912          860    6.3146683    795.14406    1.0865956 
   97000   0.50697502   -7.5646448    1.1548861 0.00099217023 0.00079101115          862    5.1411019    805.51075    1.0726114 
   97100   0.54056998    -7.516596     1.148666 0.00098581019 0.00079134465          853     5.908144    800.38776    1.0794768 
   97200   0.52158956   -7.5593749    1.1531866 0.00098867167 0.00079166891          856    5.5524637    801.59469    1.0778514 
   97300   0.52811069   -7.5498175    1.1518759 0.00098653295 0.00079198562          858    5.7466835    800.05193    1.0799299 
   97400   0.52601021   -7.5289493     1.156947 0.00098985886 0.00079231065          858    5.4291675    804.73893    1.0736401 
   97500   0.52009703   -7.5288837    1.1437484 0.00097756269 0.00079260002          857    5.5605675    803.24947     1.075631 
   97600   0.51635834   -7.5572693    1.1418984 0.00097498154 0.00079284589          856    5.6955433    800.32072    1.0795672 
   97700   0.54087722   -7.5477728    1.1453024 0.00097688703 0.0007930799          853    5.6928671    800.95651    1.0787103 
   97800   0.52081813   -7.5557018      1.14776 0.00097798226 0.00079333482          855    5.4316147    803.46854    1.0753377 
   97900   0.56235807   -7.5705846    1.1509647 0.00097971117 0.00079359201          851    5.4909716    802.03914    1.0772542 
   98000   0.53812538   -7.5526229    1.1445203 0.00097323151 0.00079383922          853    5.9514656    798.03595     1.082658 
   98100   0.52224805   -7.5862433    1.1474024 0.00097468774 0.00079408086          854    5.2829432    802.72954    1.0763277 
   98200   0.54830371    -7.538681    1.1420305 0.00096913655 0.00079428566          855    6.0548104    797.71071    1.0830994 
   98300   0.51498623   -7.5328729    1.1585629 0.00098216589 0.00079453895          850    5.3749376    804.97562    1.0733244 
   98400   0.50241863   -7.5638968    1.1595324 0.00098198885 0.00079480558          858    5.8114866     798.5822    1.0819174 
   98500    0.5124755   -7.5496589    1.1579918 0.00097968853 0.00079508337          854    5.4751329    802.99389    1.0759733 
   98600   0.56043017   -7.5355389    1.1626196 0.00098260617 0.00079536373          855     6.119514    797.21012    1.0837795 
   98700   0.53169972    -7.572436    1.1581952 0.00097787506 0.00079563842          856    5.3466672    802.98972    1.0759789 
   98800   0.53855702   -7.5247796    1.1621388 0.00098021153 0.00079590056          857    5.9447105     799.5404    1.0806208 
   98900    0.5269877   -7.5071376    1.1624065 0.00097944598 0.00079618629          855    5.8162607    801.81565    1.0775544 
   99000   0.52740903   -7.5667595    1.1487515 0.00096696254 0.00079641233          857    5.4349788    802.58263    1.0765247 
   99100   0.52255139   -7.5616814     1.142452 0.00096068956 0.00079654884          856    5.8498259    798.30176    1.0822975 
   99200    0.5444503   -7.5429295    1.1489982 0.00096522029 0.0007967055          853    5.6590417    801.62049    1.0778168 
   99300   0.50908497   -7.5243583    1.1423133 0.00095863817 0.00079684549          858     5.828322    800.69914     1.079057 
   99400   0.52490338   -7.5585043      1.16275 0.00097480718 0.00079701556          854    5.4489851     802.7556    1.0762927 
   99500   0.50284294   -7.5365886    1.1544227 0.00096685317 0.00079722419          860    5.8223807    799.87359    1.0801707 
   99600   0.50715188   -7.5301549    1.1368674 0.00095119428 0.00079734343          854    5.8494846    799.93355    1.0800897 
   99700   0.52816242   -7.5207015     1.145304 0.00095729191 0.00079742956          857    5.8019495    801.29022     1.078261 
   99800   0.55091133   -7.5643975     1.150941 0.00096103956 0.00079755908          859    5.6894685    800.02054    1.0799723 
   99900   0.51893947   -7.5463981    1.1401887 0.00095110837 0.00079769264          859    5.6891202    800.85058    1.0788529 
  100000   0.52911669   -7.5668712    1.1432022 0.00095266849 0.00079775243          854     5.241546    804.54513    1.0738987 
  100100   0.53467988   -7.5396561    1.1467843 0.00095469888 0.00079784172          855    5.7759747    800.21749    1.0797065 
  100200   0.53115368   -7.5447569    1.1559652 0.00096138155 0.00079797395          856    6.0332386    797.33851     1.083605 
  100300   0.53051217   -7.5808714    1.1473447 0.00095326077 0.00079809903          858    5.3825121    802.20752     1.077028 
  100400   0.51868909    -7.509001    1.1584775 0.00096155167 0.00079821153          849    5.9456906    800.44188    1.0794038 
  100500   0.54635217   -7.5263478    1.1583958 0.00096052717 0.00079836652          852    5.6987954    802.24462    1.0769782 
  100600   0.53052243   -7.5352567    1.1478898 0.00095086958 0.00079847064          857    5.8930839    799.63842    1.0804884 
  100700   0.51257819    -7.567734    1.1458922 0.00094827224 0.00079853785          858    5.3237736     803.5669    1.0752061 
  100800   0.53881167   -7.5264846      1.14067 0.00094301421 0.00079856204          857     5.909504    799.75833    1.0803263 
  100900   0.54288176   -7.5668285     1.154595 0.0009535803 0.00079863153          858     4.981536    807.74436    1.0696454 
  101000   0.53485507   -7.5534283     1.160558 0.00095755613 0.00079872257          857    6.0711871    796.67835    1.0845029 
  101100   0.53009498   -7.5528199    1.1654255 0.00096062112 0.0007988803          856    5.4023193    803.59761     1.075165 
  101200   0.53137088   -7.5513736     1.145458 0.00094322958 0.00079896116          857    5.7215255    800.31347     1.079577 
  101300   0.52781812   -7.5445013    1.1360352 0.00093454689 0.00079895492          858    5.7155906    800.80119    1.0789195 
  101400   0.50200761   -7.5073951    1.1422488 0.00093873173 0.00079894304          857    5.3776313    806.53206    1.0712531 
  101500   0.54579704   -7.5306387    1.1514371 0.00094535066 0.00079897616          856    5.7946536    801.16841    1.0784249 
  101600   0.53175785   -7.5716486    1.1417026 0.00093643586 0.00079899238          855     5.714146    799.38418     1.080832 
  101700   0.54231288   -7.5575457    1.1458908 0.00093894692 0.00079898155          851    5.6792585    800.53331    1.0792805 
  101800    0.5377264   -7.4913669    1.1528249 0.00094370079 0.00079900701          852    5.7115618    804.09504    1.0744998 
  101900   0.54332085    -7.551411    1.1535196 0.00094334282 0.00079904933          854    5.6150819     801.9485    1.0773759 
  102000   0.52819123   -7.5520047    1.1489255 0.00093866459 0.00079906399          857    5.8282991    798.91009    1.0814734 
  102100   0.52286243   -7.5606739    1.1594656 0.00094634804 0.00079910131          859    5.6288163       800.62    1.0791636 
  102200   0.54053782   -7.5147599    1.1602553 0.00094606596 0.00079916077          856    5.9350253    800.42651    1.0794245 
  102300   0.51462664   -7.5445489    1.1530909 0.0009393051 0.00079922287          856    5.7208821    800.82115    1.0788926 
  102400   0.52090904   -7.5468423    1.1464147 0.00093295469 0.00079922224          856    5.9463339    798.26863    1.0823424 
  102500   0.54099221   -7.5753757    1.1471748 0.00093266248 0.00079917841          852     5.265106    804.02115    1.0745986 
  102600   0.54511061   -7.5531488    1.1373663 0.0009237868 0.00079914475          858    6.0028778    797.38469    1.0835422 
  102700   0.52572284   -7.5792644    1.1376395 0.00092310896 0.00079906837          849    5.5593593    800.11215    1.0798486 
  102800    0.5354811   -7.5153912    1.1361134 0.00092097388 0.0007989733          854    5.9173347     800.4725    1.0793625 
  102900   0.53732728   -7.5560937     1.142189 0.00092499917 0.00079889499          849    5.7445357    799.82554    1.0802356 
  103000   0.54353769   -7.5700365    1.1483635 0.00092909667 0.00079884906          852    5.5408223    801.26481    1.0782952 
  103100   0.56073292   -7.5337172    1.1429447 0.00092381559 0.00079878743          855    6.0805475    798.01187    1.0826907 
  103200   0.51010299   -7.5491169    1.1530413 0.00093107337 0.00079873898          857    5.6670489      800.772    1.0789588 
  103300   0.52279784   -7.5531118    1.1571499 0.00093348652 0.00079872557          861    5.7215457    799.97268    1.0800369 
  103400    0.5455191   -7.5252221     1.155839 0.00093152727 0.00079871077          859    5.4917447     804.6858     1.073711 
  103500   0.54195453   -7.5607885    1.1546762 0.00092969098 0.00079868384          859    5.3177421    804.90902    1.0734132 
  103600   0.54499459   -7.5657872    1.1440168 0.00092021942 0.00079862548          856    5.8165593    798.40099     1.082163 
  103700   0.51792158   -7.5564341     1.137884 0.00091440371 0.00079850737          855    5.6081236    800.72575    1.0790211 
  103800   0.52396056   -7.5012313    1.1350787 0.00091127064 0.00079836824          859    5.9051805    801.32567    1.0782133 
  103900    0.5572451   -7.5806539    1.1399986 0.00091433959 0.00079824959          858    5.6650431    799.52076    1.0806474 
  104000   0.52124315   -7.5544608    1.1388401 0.00091253216 0.00079814024          856    5.7042766    800.23469    1.0796833 
Loop time of 195.282 on 12 procs for 100000 steps with 864 atoms

Performance: 88487.300 tau/day, 512.079 timesteps/s
99.4% CPU use with 12 MPI tasks x no OpenMP threads

MPI task timing breakdown:
Section |  min time  |  avg time  |  max time  |%varavg| %total
---------------------------------------------------------------
Pair    | 10.209     | 10.965     | 11.989     |  17.0 |  5.62
Neigh   | 0.90351    | 0.92509    | 0.95651    |   1.9 |  0.47
Comm    | 7.2121     | 8.4805     | 9.2368     |  21.4 |  4.34
Output  | 2.5772     | 2.578      | 2.5856     |   0.1 |  1.32
Modify  | 169.67     | 169.99     | 170.53     |   1.7 | 87.05
Other   |            | 2.344      |            |       |  1.20

Nlocal:        72.0000 ave          77 max          68 min
Histogram: 1 0 2 4 1 2 0 0 0 2
Nghost:        1664.00 ave        1674 max        1656 min
Histogram: 1 1 0 6 0 1 0 1 1 1
Neighs:        8984.67 ave        9804 max        8148 min
Histogram: 2 1 1 1 0 2 2 0 0 3
FullNghs:      17969.5 ave       19261 max       16906 min
Histogram: 1 0 2 4 1 2 0 0 0 2

Total # of neighbors = 215634
Ave neighs/atom = 249.57639
Neighbor list builds = 4010
Dangerous builds = 0

#clear
#
#next RN
#
#jump SELF



Total wall time: 0:03:16
