
units lj                  # Use reduced LJ style units
atom_style atomic         # Uncharged point particles
atom_modify map hash      # Needed for indexing of clusters etc
                          # Used to be able to find where atoms are in relation to each other.

# Define a lattice with which to populate the simulation cell. With units
# set to 'lj' the second argument to the lattice command is the reduced
# density rho* and the spacings are multiples of that required to acheive
# that density. Also define a simulation cell called 'box' in lattice units
# and fill it with atoms. Here we're creating a box which is ten lattice
# constants in each direction.
lattice fcc 1.0 spacing 1 1 1                 # All equal sizes - gives the right reduced density.
Lattice spacing in x,y,z = 1.5874011 1.5874011 1.5874011

region box block 0 6 0 6 0 6 units lattice # Defines a region, "box", in lattice units
create_box 1 box                              # Creates a simulation box as specified above,
Created orthogonal box = (0.0000000 0.0000000 0.0000000) to (9.5244063 9.5244063 9.5244063)
  2 by 2 by 3 MPI processor grid
                                              # with one type of atom
create_atoms 1 box                            # Creates particles on lattice points
Created 864 atoms
  using lattice units in orthogonal box = (0.0000000 0.0000000 0.0000000) to (9.5244063 9.5244063 9.5244063)
  create_atoms CPU = 0.001 seconds


# Set the mass of the first (and only) atom type.
mass 1 1.0

# Lennard-Jones interactions between particles, 3.5 sigma cut-off. Apply
# long range tail corrections to energy and pressure and set all coefficients
# to unity since we work in reduced units here. Note that this doesn't shift
# the potential such that it goes to zero at the cutoff. That would require
# pair_modify('shift', 'yes').
pair_style lj/cut  3.5      # non-GPU version
pair_modify tail  yes
pair_coeff 1  1  1.0  1.0   # Intearaction between 1 and 1 set with epsilon = 1 and sigma = 1

write_data data.*
System init for write_data ...
Neighbor list info ...
  update every 1 steps, delay 10 steps, check yes
  max neighbors/atom: 2000, page size: 100000
  master list distance cutoff = 3.8
  ghost atom cutoff = 3.8
  binsize = 1.9, bins = 6 6 6
  1 neighbor lists, perpetual/occasional/extra = 1 0 0
  (1) pair lj/cut, perpetual
      attributes: half, newton on
      pair build: half/bin/atomonly/newton
      stencil: half/bin/3d
      bin: standard

#############################
#   M E L T   S Y S T E M   #
#############################

velocity all create 2.4 2750902 mom yes dist gaussian # Assign velocities
                                                    # Temperature 2.4, random number seed, zero linear momentum
						                                                        # Gaussian distribution

timestep 0.002   # simulation timestep
thermo 100       # output thermodynamic data every 100 steps

# Define a fix  in this case with index 1 applied to all
# particles in the simulation. This fix is for simulations
# in the anisotropic NPT ensemble. Note that we use the MTK
# correction.
fix 1 all npt temp 2.4 2.4 0.1 iso 5.68 5.68 0.5 mtk yes tchain 5 pchain 5 # Use NPT ensemble
                                                                         # Set temperature and pressure and damping
                                                                         # Numbers of thermostats in chain and in barostat
run 1000         # run for 10000 steps
Per MPI rank memory allocation (min/avg/max) = 3.633 | 3.633 | 3.634 Mbytes
Step Temp E_pair E_mol TotEng Press Volume 
       0          2.4   -8.3859253            0    -4.790092     -2.24275          864 
     100    1.3007594   -6.4407842            0   -4.4919034    5.3582762    891.69205 
     200    1.5828213   -6.0796178            0   -3.7081338    6.4338598    907.46239 
     300    1.7629056     -5.73851            0   -3.0972122    5.5953229    954.02439 
     400    1.8733232   -5.2785237            0   -2.4717912    6.0585808    994.36537 
     500      2.02574   -4.9360708            0   -1.9009777    5.7478153    1042.8978 
     600    2.2112838   -4.6895875            0   -1.3765009    5.7138268    1079.0368 
     700    2.3146746   -4.4629638            0  -0.99497044    5.6088298    1118.0222 
     800    2.4734008     -4.39503            0   -0.6892229    5.7937797    1123.7282 
     900    2.4206618   -4.2767239            0  -0.64993368    5.5531987    1146.9555 
    1000    2.3618098   -4.2459295            0  -0.70731524    5.7000582    1143.3852 
Loop time of 0.187846 on 12 procs for 1000 steps with 864 atoms

Performance: 919904.418 tau/day, 5323.521 timesteps/s
99.8% CPU use with 12 MPI tasks x no OpenMP threads

MPI task timing breakdown:
Section |  min time  |  avg time  |  max time  |%varavg| %total
---------------------------------------------------------------
Pair    | 0.068891   | 0.08041    | 0.098006   |   3.6 | 42.81
Neigh   | 0.012081   | 0.013352   | 0.015374   |   1.1 |  7.11
Comm    | 0.056582   | 0.076364   | 0.088866   |   4.1 | 40.65
Output  | 0.00018917 | 0.00019793 | 0.0002567  |   0.0 |  0.11
Modify  | 0.015378   | 0.015837   | 0.016262   |   0.2 |  8.43
Other   |            | 0.001684   |            |       |  0.90

Nlocal:        72.0000 ave          80 max          66 min
Histogram: 2 1 2 2 1 0 2 0 0 2
Nghost:        1314.75 ave        1327 max        1295 min
Histogram: 1 0 0 2 3 0 0 1 2 3
Neighs:        6211.67 ave        7136 max        5326 min
Histogram: 2 0 0 2 1 4 1 0 0 2

Total # of neighbors = 74540
Ave neighs/atom = 86.273148
Neighbor list builds = 80
Dangerous builds = 2

# Equilibrate just above the melting temperature to avoid step fn in T

fix 1 all npt temp 1.25 1.25 0.1 iso 5.68 5.68 0.5 mtk yes tchain 5 pchain 5
run 1000
Per MPI rank memory allocation (min/avg/max) = 3.634 | 3.634 | 3.634 Mbytes
Step Temp E_pair E_mol TotEng Press Volume 
    1000    2.3618098   -4.2459295            0  -0.70731524    5.7000582    1143.3852 
    1100    1.8617945   -4.5967525            0    -1.807293    5.9593679    1083.5566 
    1200      1.66126   -5.0091582            0   -2.5201524    5.9308167    1028.0056 
    1300    1.4533368   -5.3154554            0   -3.1379734    5.5185254    997.93023 
    1400    1.3100587   -5.5224566            0    -3.559643    5.2858775     978.0358 
    1500    1.3306301   -5.7450087            0   -3.7513736    5.2687861    956.68836 
    1600    1.2302857    -5.777427            0   -3.9341343     5.385203    950.58576 
    1700    1.2545134   -5.8251615            0   -3.9455694    5.6370291    940.07281 
    1800    1.2669685   -5.8434457            0   -3.9451925    6.1076728    931.13358 
    1900    1.2975362   -5.8185374            0   -3.8744858    5.5765884    942.23221 
    2000    1.2225624   -5.8503078            0   -4.0185867    5.1330896    948.19804 
Loop time of 0.161508 on 12 procs for 1000 steps with 864 atoms

Performance: 1069916.292 tau/day, 6191.645 timesteps/s
99.9% CPU use with 12 MPI tasks x no OpenMP threads

MPI task timing breakdown:
Section |  min time  |  avg time  |  max time  |%varavg| %total
---------------------------------------------------------------
Pair    | 0.070125   | 0.07717    | 0.085493   |   1.6 | 47.78
Neigh   | 0.0099046  | 0.010577   | 0.011647   |   0.4 |  6.55
Comm    | 0.048165   | 0.057602   | 0.065097   |   2.1 | 35.67
Output  | 0.00018741 | 0.0001941  | 0.00023949 |   0.0 |  0.12
Modify  | 0.013911   | 0.01417    | 0.014378   |   0.1 |  8.77
Other   |            | 0.001794   |            |       |  1.11

Nlocal:        72.0000 ave          79 max          65 min
Histogram: 1 1 0 4 0 1 1 3 0 1
Nghost:        1466.08 ave        1476 max        1447 min
Histogram: 1 1 0 0 2 0 0 4 1 3
Neighs:        7466.67 ave        8131 max        6694 min
Histogram: 1 0 2 0 3 1 3 0 0 2

Total # of neighbors = 89600
Ave neighs/atom = 103.70370
Neighbor list builds = 67
Dangerous builds = 0


# Small amount of linear quench

fix 1 all npt temp 1.25 ${temp} 0.1 iso 5.68 5.68 0.5 mtk yes tchain 5 pchain 5
fix 1 all npt temp 1.25 0.95 0.1 iso 5.68 5.68 0.5 mtk yes tchain 5 pchain 5
run 2000
Per MPI rank memory allocation (min/avg/max) = 3.634 | 3.634 | 3.634 Mbytes
Step Temp E_pair E_mol TotEng Press Volume 
    2000    1.2225624   -5.8503078            0   -4.0185867    5.1330896    948.19804 
    2100    1.2579507    -5.859913            0   -3.9751709    5.4231595    941.52652 
    2200    1.2329292   -5.9027178            0   -4.0554644    5.8393242    929.23808 
    2300    1.2026006   -5.9019197            0   -4.1001066    6.3045045    921.10864 
    2400    1.1953727   -5.9449072            0   -4.1539234    5.9515403     923.1609 
    2500    1.1216817   -5.9607307            0   -4.2801556     5.553517    926.26069 
    2600    1.1268088   -5.9893005            0   -4.3010436    5.6281758    922.75906 
    2700    1.1923242   -5.9585951            0   -4.1721789    5.7120166    924.89782 
    2800    1.1677915   -6.0091257            0   -4.2594659    5.6933236    922.16874 
    2900    1.0939073   -5.9965942            0   -4.3576324    5.7753619    920.01522 
    3000    1.0796966     -6.09033            0   -4.4726596    5.7035149    913.40664 
    3100    1.1115719   -6.1318979            0   -4.4664698    5.4203606    914.63203 
    3200    1.0318819   -6.1183341            0   -4.5723027    5.4136816    915.37488 
    3300    1.0700296   -6.1509655            0   -4.5477787    5.4121798    912.17414 
    3400    1.0335851    -6.168716            0   -4.6201327    5.3876039    912.04296 
    3500    1.0128179   -6.1668959            0   -4.6494274     5.773079    903.81256 
    3600    1.0379489   -6.2141918            0   -4.6590705    5.9046136    898.22713 
    3700    1.0053705   -6.2603936            0   -4.7540833    5.8650182    895.70203 
    3800   0.97651871   -6.2790614            0   -4.8159787    5.8869927    894.57093 
    3900   0.95930402   -6.2858991            0   -4.8486086    5.5825751    896.38021 
    4000   0.94591969   -6.2809295            0   -4.8636922     5.487489    898.23324 
Loop time of 0.334286 on 12 procs for 2000 steps with 864 atoms

Performance: 1033845.182 tau/day, 5982.900 timesteps/s
99.9% CPU use with 12 MPI tasks x no OpenMP threads

MPI task timing breakdown:
Section |  min time  |  avg time  |  max time  |%varavg| %total
---------------------------------------------------------------
Pair    | 0.15141    | 0.16454    | 0.18626    |   2.1 | 49.22
Neigh   | 0.017756   | 0.01862    | 0.020519   |   0.5 |  5.57
Comm    | 0.093656   | 0.1171     | 0.13047    |   2.7 | 35.03
Output  | 0.00037998 | 0.00039724 | 0.00050128 |   0.0 |  0.12
Modify  | 0.028527   | 0.029426   | 0.029979   |   0.2 |  8.80
Other   |            | 0.004206   |            |       |  1.26

Nlocal:        72.0000 ave          77 max          67 min
Histogram: 1 0 1 0 3 3 1 1 1 1
Nghost:        1525.92 ave        1532 max        1520 min
Histogram: 4 0 1 1 0 0 2 0 0 4
Neighs:        7908.25 ave        8680 max        7176 min
Histogram: 1 1 3 0 1 1 1 2 0 2

Total # of neighbors = 94899
Ave neighs/atom = 109.83681
Neighbor list builds = 116
Dangerous builds = 0

#############################
# F R E E Z E  S Y S T E M  #
#############################

# Define solid atoms. This closely follows ten Wolde  Ruiz-Montero and Frenkel  Faraday Discuss  1996  104  93-110
# Compute components of the per-atom q6 vector
compute q6 all orientorder/atom degrees 1 6 components 6 nnn NULL cutoff 1.3 # compute the Q6 parameter.
                                                                             # Use all neighbours within 1.3 unit cell.

# get number of connections
compute coord_number all coord/atom orientorder q6 0.5

# An atom is solid if it has 8 or more connections (of a possible 14)
variable is_solid atom c_coord_number>=8
group solid dynamic all var is_solid    # Must be dynamic to update
dynamic group solid defined

# do clustering
compute cluster solid cluster/atom 1.3 # Create a cluster where all atoms within are solid and max 1.3 units from another member

# define chunks one chunk per cluster
compute clus_chunks solid chunk/atom c_cluster nchunk every compress yes  # Says which atoms are in which chunk

# count the size of each chunk
compute size_chunks solid property/chunk clus_chunks count


# Find the maximum entry in the vector of chunk sizes
variable max_n equal max(c_size_chunks)


# Thermo style which includes this variable
# thermo_style custom step temp pe vol v_max_n

thermo ${N}  # Print the thermo information every 100 steps
thermo 100  

# Reset the npt fix at a lower temperature (below freezing)

compute myRDF all rdf 100
fix 2 all ave/time 1 50 100 c_myRDF[*] file pcf.rdf mode vector


compute msd all msd com yes
variable twopoint equal c_msd[4]/6/(step*dt+1.0e-6)
fix 9 all vector 10 c_msd[4]
variable fit equal slope(f_9)/6/(10*dt)
thermo_style custom step temp pe c_msd[4] v_twopoint v_fit v_max_n press vol density


fix 1  all npt temp  ${temp} ${temp}  0.1  iso  5.68  5.68  0.5  mtk yes tchain  5  pchain  5
fix 1  all npt temp  0.95 ${temp}  0.1  iso  5.68  5.68  0.5  mtk yes tchain  5  pchain  5
fix 1  all npt temp  0.95 0.95  0.1  iso  5.68  5.68  0.5  mtk yes tchain  5  pchain  5

dump dmp2 all dcd ${N} traj.dcd
dump dmp2 all dcd 100 traj.dcd
dump dmp3 all dcd ${N} traj_unwrap.dcd
dump dmp3 all dcd 100 traj_unwrap.dcd
dump_modify dmp3 unwrap yes


# fix rnuntil all halt ${N} v_max_n >= 3980 error soft message no   # Stop when solidified

run 100000 # 5000000  # Run for this many steps
Neighbor list info ...
  update every 1 steps, delay 10 steps, check yes
  max neighbors/atom: 2000, page size: 100000
  master list distance cutoff = 3.8
  ghost atom cutoff = 3.8
  binsize = 1.9, bins = 6 6 6
  5 neighbor lists, perpetual/occasional/extra = 1 4 0
  (1) pair lj/cut, perpetual
      attributes: half, newton on
      pair build: half/bin/atomonly/newton
      stencil: half/bin/3d
      bin: standard
  (2) compute orientorder/atom, occasional
      attributes: full, newton on
      pair build: full/bin/atomonly
      stencil: full/bin/3d
      bin: standard
  (3) compute coord/atom, occasional
      attributes: full, newton on
      pair build: full/bin/atomonly
      stencil: full/bin/3d
      bin: standard
  (4) compute cluster/atom, occasional
      attributes: full, newton on
      pair build: full/bin/atomonly
      stencil: full/bin/3d
      bin: standard
  (5) compute rdf, occasional, copy from (1)
      attributes: half, newton on
      pair build: copy
      stencil: none
      bin: none
Per MPI rank memory allocation (min/avg/max) = 9.697 | 9.700 | 9.702 Mbytes
Step Temp PotEng c_msd[4] v_twopoint v_fit v_max_n Press Volume Density 
    4000   0.94591969   -6.2809295 7.8794787e-31 1.6415579e-32 8.3333333e+20            2     5.487489    898.23324   0.96188825 
    4100   0.92923791   -6.3559539  0.048125378 0.00097815797  0.043608985            3    5.3192934    895.37315   0.96496081 
    4200   0.95818511   -6.3577991  0.083250377  0.001651793  0.037054753            2    5.5154506    892.22838   0.96836193 
    4300   0.90500117   -6.3582329   0.11547821 0.0022379495  0.032564312            4    5.5800539    890.17719   0.97059328 
    4400    0.9818305   -6.3802793   0.13808358 0.0026152191   0.02890843            3    5.9038381    884.63318   0.97667601 
    4500     1.011137   -6.3507578   0.16029579 0.0029684402  0.026617964            3    5.9988538    886.54263   0.97457242 
    4600   0.97806806   -6.3083456   0.18355849 0.0033253346  0.024588986            1    5.8909801    890.33715    0.9704189 
    4700   0.92055571   -6.3286203   0.19510141 0.0034592444  0.022920183            2     6.011058    885.72838   0.97546835 
    4800   0.97042976   -6.3656385   0.21163957 0.0036742976    0.0210748            2    5.6312281    890.52039   0.97021922 
    4900   0.95689423   -6.2670807    0.2415179 0.0041074468  0.020221797            3    5.8434334    894.10251   0.96633215 
    5000   0.91100458   -6.3041538   0.26759057 0.0044598424  0.020002077            2    5.9122691    890.02616   0.97075798 
    5100   0.93748791   -6.3833678   0.28025179 0.0045792771  0.019622837            2    5.4971265    888.62336   0.97229044 
    5200   0.93940593   -6.3699419   0.31121423 0.0049874071  0.019347545            3    5.2953839    894.40811   0.96600198 
    5300   0.92677576   -6.4297136   0.32903864 0.0051735631  0.019235625            8    5.5822477    885.10195   0.97615874 
    5400    0.9346039   -6.3441403   0.34874022  0.005381793  0.019015359            9     5.868205    887.67341   0.97333095 
    5500   0.98651342   -6.3785323   0.37780081 0.0057242541  0.018981357            9    6.0237582    883.40539   0.97803343 
    5600   0.95044541   -6.3624881    0.4098843 0.0060994682  0.019086654            3    6.1876381    880.98659   0.98071867 
    5700   0.97293682   -6.3586971   0.42739886 0.0062485208  0.019202267            1    5.9285255    885.46964   0.97575339 
    5800   0.97077184   -6.3635744   0.44453191 0.0063869522  0.019207843            6    5.7787458     887.6691   0.97333567 
    5900   0.89402832   -6.3710555    0.4620951 0.0065267664  0.019103915            4    5.9675797    882.15318   0.97942174 
    6000   0.97860432   -6.4073893   0.46526684 0.0064620389  0.018914079            5    5.7137997    885.51217   0.97570653 
    6100   0.95085436   -6.3419352   0.47894332  0.006542941  0.018574643            5    5.8614522     887.3226   0.97371576 
    6200   0.96163116   -6.3377739   0.50322686 0.0067638013  0.018309762            4    5.8166553    888.12362   0.97283754 
    6300   0.97821617   -6.3875247   0.51983483 0.0068761215  0.018105224            9    5.8710324    883.59466   0.97782393 
    6400   0.99635221   -6.3296274   0.53984888 0.0070292817  0.017888411            7    5.6762029    892.40985   0.96816502 
    6500   0.95263611   -6.3190033   0.56445739 0.0072366327  0.017746353            8    5.9091959      889.365   0.97147965 
    6600   0.95225192   -6.3409104   0.58971633 0.0074459127   0.01766789            3    5.9128211    887.72479   0.97327461 
    6700    1.0095924    -6.333723   0.60764902 0.0075578231  0.017600568            4    5.8723443    889.58649   0.97123777 
    6800   0.97371578   -6.3616222   0.63306821 0.0077581882  0.017544488            9    5.7105798    888.77652   0.97212289 
    6900   0.92879002   -6.3319397   0.66889854 0.0080784842  0.017559368            4     5.692556    890.28346   0.97047742 
    7000   0.95583141   -6.3710444   0.68509123 0.0081558474  0.017608499            7    5.3903964    892.45385   0.96811729 
    7100   0.94382225   -6.3964921   0.70045022 0.0082212462  0.017595168            6    5.6127147    887.70069   0.97330103 
    7200   0.96090391    -6.298712   0.72093213 0.0083441213   0.01758844            7      5.98104    889.42648    0.9714125 
    7300   0.94208642   -6.3437687   0.73921499 0.0084385267  0.017562532            6    5.6033503    891.52979   0.96912072 
    7400    0.9603169   -6.3493218   0.75145498 0.0084623302  0.017524194            3    5.6833579    890.24557   0.97051873 
    7500   0.93261962   -6.3607445   0.77908925 0.0086565466  0.017491703            2     5.810128    886.82408   0.97426313 
    7600   0.94403974   -6.3612281   0.78783329 0.0086385224  0.017447191            6    5.8239445    887.14682   0.97390869 
    7700    0.9551881   -6.3283745   0.79524873 0.0086065874  0.017370253            7    5.8432682    889.86359   0.97093533 
    7800   0.93901053   -6.3351715   0.80783054 0.0086306677  0.017244266            3    6.0058847    885.82777    0.9753589 
    7900   0.95443302   -6.3992888   0.82779775 0.0087320433  0.017149477            1    6.0061125    881.23847   0.98043836 
    8000   0.96657116   -6.3727437   0.85178083 0.0088727164  0.017066548            2    6.0942208    881.97208   0.97962284 
    8100   0.98426904   -6.3623403   0.87930768 0.0090463748  0.017016167            4    5.8581396    885.94649    0.9752282 
    8200   0.96623827   -6.3735826   0.90249385 0.0091716849  0.016993711            2    5.9182826    884.20462   0.97714939 
    8300   0.92255756   -6.3925805   0.92414864 0.0092786002   0.01695716            4    5.7717599    884.54628   0.97677196 
    8400   0.98658558   -6.3998588   0.95234465 0.0094478631  0.016943522            6    5.9407584    882.57841   0.97894985 
    8500    1.0229609   -6.3818436   0.99777472 0.0097821045  0.016982711            6    5.7377101     887.7897   0.97320345 
    8600   0.92294405   -6.3206539    1.0386977    0.0100649  0.017063001            9    6.0366003     887.3983    0.9736327 
    8700   0.94076551    -6.375536    1.0649352  0.010200528  0.017164353            4    5.8044257    885.71327   0.97548499 
    8800   0.96012253   -6.3850835    1.0660998  0.010095641   0.01723009            5    5.7323645     885.4774   0.97574483 
    8900   0.92514635   -6.3711417    1.0901046  0.010206971   0.01727425            2    5.6030162    889.42745   0.97141144 
    9000   0.96710579   -6.3333202    1.1061094  0.010241754  0.017314391            5    5.6219996    891.72681   0.96890661 
    9100   0.97160937   -6.3325141    1.1211609  0.010267041  0.017335961            7    5.3466152    896.49053   0.96375809 
    9200   0.94399884   -6.3248788    1.1457517  0.010378185  0.017355437            9    5.3109934    897.47417    0.9627018 
    9300   0.88640493   -6.3475621    1.1579422  0.010375826  0.017357663            4    5.6467435    889.71038   0.97110252 
    9400   0.98875398   -6.4039919    1.1842247  0.010498446  0.017362559            9    5.4547886    889.29954   0.97155116 
    9500   0.92668408   -6.3800075    1.1989956  0.010517504  0.017378571            5    5.4741543    889.93123   0.97086153 
    9600   0.90791477   -6.4133199    1.2110365  0.010512469  0.017367228           11    5.7015311    884.58951   0.97672422 
    9700   0.90531934   -6.3377611      1.25233  0.010758848  0.017372941            6    5.5834275    891.44493   0.96921298 
    9800    0.9734863   -6.3495494    1.2652092  0.010758581   0.01738552            2     5.525235    891.90093   0.96871745 
    9900   0.97565064   -6.4064801    1.2799623  0.010774093  0.017384558            2    5.3665894    890.80363   0.96991074 
   10000   0.91668533   -6.3543203    1.3119459  0.010932882  0.017393248            3    5.9092051    885.34429   0.97589153 
   10100   0.96432401   -6.3715697    1.3496998  0.011136137  0.017420817            7    5.5149874    890.74132   0.96997858 
   10200   0.96528042    -6.288546    1.3819103  0.011290117  0.017459048            3    5.6294641    894.98614   0.96537808 
   10300    0.9479087   -6.3183568    1.4106666   0.01141316  0.017507972            7    5.5183495    895.41501   0.96491569 
   10400   0.91287613   -6.3507042    1.4147569  0.011336192  0.017545678            2    5.3844359     894.5924   0.96580297 
   10500   0.94320287   -6.3533698    1.4302752   0.01135139  0.017561935            5    5.2910651    895.28825   0.96505232 
   10600   0.90131527   -6.3990794    1.4377362  0.011302957  0.017567399            1    5.0716706    893.46508   0.96702156 
   10700   0.92581216   -6.3936895     1.468545  0.011437266  0.017564946            5    5.1178002    893.67115   0.96679858 
   10800   0.95330145   -6.3444619    1.4752278   0.01138293  0.017564248            9    5.4962791     892.9752   0.96755206 
   10900   0.94742982   -6.4483019    1.4904172  0.011394627  0.017553624            7     5.098222    890.73752   0.96998272 
   11000   0.93834699   -6.4009767    1.5055689  0.011405825  0.017536162            9    5.3496524    890.80381   0.96991053 
   11100   0.95305259   -6.3740261     1.535261  0.011525983   0.01752119            1    4.9474507    900.23349   0.95975101 
   11200   0.97261683   -6.3916546    1.5356502  0.011425968  0.017501589            3     5.097009    896.24697   0.96401999 
   11300   0.93474084   -6.4004016    1.5453756  0.011396574  0.017468271            2    5.1183386    894.34712   0.96606785 
   11400   0.92736978   -6.4378624    1.5773562  0.011530381  0.017433912            3    4.9165824    893.82668   0.96663036 
   11500   0.93279632   -6.4667263    1.5932388  0.011545208  0.017407538            5    5.3359143    884.75142   0.97654548 
   11600   0.91555711   -6.4438647    1.6206605  0.011642675  0.017388723            4    5.4348285    885.04907   0.97621706 
   11700   0.94211496   -6.3743456    1.6607146  0.011828451  0.017383815            8    5.5791512    888.82527   0.97206958 
   11800   0.91351218   -6.3838001    1.7131356  0.012098414  0.017397942            6    5.6345268    886.86759   0.97421532 
   11900   0.94069969   -6.3755723    1.7346285  0.012147258  0.017426725            3    5.7071577    887.68342   0.97331997 
   12000   0.98256402   -6.3655337     1.744793  0.012116618  0.017449662            7    5.7836889     887.9865   0.97298776 
   12100   0.96011936   -6.3173825    1.7638069   0.01214743  0.017469305            3    6.0017946    887.50524   0.97351538 
   12200   0.94889374    -6.377114    1.7679686  0.012076287  0.017476633            7    5.8320054    885.74082   0.97545464 
   12300    1.0166627   -6.4366375    1.7818306  0.012072022  0.017480358            4    5.8417496    882.36622   0.97918527 
   12400   0.92537852    -6.365078    1.8048499  0.012129367   0.01747903            2    6.0148971    883.89232   0.97749464 
   12500   0.93223889   -6.3571639    1.8206806   0.01213787  0.017474942            4     5.709693    887.99051   0.97298337 
   12600    1.0011255   -6.3870524     1.852784  0.012253862  0.017470522            1    5.1149563    896.46954   0.96378065 
   12700   0.94244626   -6.3833387    1.8674284  0.012253466  0.017465608            3    5.3052285    892.49319   0.96807461 
   12800   0.95529145    -6.362263     1.886141  0.012279564  0.017460975            5    5.5569741    890.19945   0.97056901 
   12900   0.96907916   -6.3142647    1.8982989  0.012262912  0.017452541            3    5.6717049    893.60359   0.96687168 
   13000   0.96405197   -6.3980318    1.9156876  0.012280048  0.017440111            2    5.4291207    890.11786   0.97065797 
   13100   0.92546277   -6.3690252    1.9342618  0.012304464  0.017429039            4    5.6796948    887.80732   0.97318414 
   13200   0.95683584   -6.3456313    1.9591463  0.012368347  0.017417559            5    5.6216545    890.69048   0.97003395 
   13300   0.99060503   -6.3661291    1.9620456  0.012293518  0.017403412            9    5.6205341    890.62832   0.97010164 
   13400   0.96692609   -6.4084314    1.9598878  0.012188356  0.017378742            5    5.5073678    888.10913   0.97285342 
   13500   0.93819505   -6.3646652    1.9926071  0.012300043  0.017353916            2    5.8738553    886.43312   0.97469282 
   13600   0.92612191   -6.3603198    2.0179833  0.012365093  0.017331577            7    5.7845703    886.01494   0.97515286 
   13700   0.97678858   -6.3645423    2.0485907  0.012461014  0.017316548            5    5.6877212     889.1706   0.97169205 
   13800   0.98086621   -6.4343019    2.0640326  0.012463965   0.01730931            6    5.6905238     883.5026   0.97792582 
   13900    0.9520729   -6.4496915    2.0582138  0.012339411  0.017287407            3    5.6251027    882.72858   0.97878331 
   14000   0.97264822   -6.3857032    2.1006068  0.012503611  0.017265447            5    5.3005425    893.03303   0.96748941 
   14100     0.922572   -6.3659893    2.1335727  0.012609767  0.017256529            5    5.2774914    893.52583   0.96695582 
   14200   0.96675379   -6.3542135    2.1545854   0.01264428  0.017247444            2    5.6606117    890.36374   0.97038993 
   14300   0.95341429   -6.3042196    2.1690139   0.01263994  0.017243276            2    6.0275812    888.34497   0.97259514 
   14400   0.96082917   -6.3630358    2.1643537  0.012525194  0.017229718            5    6.2860532    879.93329   0.98189261 
   14500   0.91369497    -6.321765    2.1877755  0.012573422  0.017212132            5    6.4084997    880.84994   0.98087082 
   14600    0.9885323   -6.3946276    2.2196677  0.012669336  0.017200817            4    5.7210424    886.00036    0.9751689 
   14700   0.98286888    -6.342034    2.2477435   0.01274231   0.01719483            1     6.090912    885.03476   0.97623284 
   14800   0.96441199   -6.3778223    2.2741973  0.012805165  0.017191546            5    5.9543934     884.4401   0.97688922 
   14900   0.97036271   -6.2997076    2.3031979   0.01288142  0.017189052           12    5.9173615    890.54998   0.97018698 
   15000   0.96347249   -6.3367732    2.3349072  0.012971706  0.017190548            7    5.7000156    891.39512   0.96926714 
   15100   0.96989066   -6.3566406    2.3397124   0.01291232  0.017189406            7    5.6784552    890.33772   0.97041828 
   15200   0.96501867   -6.3341107     2.350889  0.012888645  0.017185537            2    5.5804648    892.81283   0.96772803 
   15300   0.93270918   -6.3237439    2.3750716   0.01293612  0.017179501            2    5.5945996    892.62338   0.96793342 
   15400   0.93220577   -6.3676521    2.3694997  0.012821968  0.017166424            2    5.4131696    892.33243   0.96824902 
   15500   0.92694163   -6.3408266    2.4231749  0.013027822  0.017155161            3    5.3596374    895.02187   0.96533954 
   15600   0.99860097   -6.3211692    2.4913194   0.01330833  0.017161715            3    5.3202045    898.56419   0.96153398 
   15700   0.95173879   -6.1683355    2.5557884  0.013565755  0.017184095            4    5.7493353    903.23638   0.95656023 
   15800   0.96670668   -6.2895945    2.5790842  0.013602764  0.017214934            4    5.5613541    897.60753   0.96255877 
   15900   0.98192398   -6.3268315    2.5950005  0.013600631  0.017242749            2    5.6106732    893.98794   0.96645599 
   16000   0.93508495    -6.352158    2.5991831  0.013537412  0.017269063            2    5.8136709    888.60362   0.97231204 
   16100   0.94568551   -6.3222392    2.6089016  0.013503631  0.017286901            2    6.0815816    885.90215   0.97527701 
   16200   0.95712031   -6.3373953    2.6293691  0.013525561  0.017304249            5    5.8567784    888.56793   0.97235109 
   16300   0.95727073   -6.3040476    2.6754185  0.013678008  0.017321168            4     5.854316    890.33592   0.97042024 
   16400   0.93170545   -6.3842794    2.6834983  0.013635662  0.017341017            7    5.5730338    888.50958   0.97241495 
   16500   0.98824191   -6.3829217    2.6914537    0.0135932    0.0173553            8    5.6448285    888.59214    0.9723246 
   16600   0.90132942    -6.325971    2.7031645  0.013570102  0.017365719           15    6.0916603    885.04775   0.97621851 
   16700   0.96335696   -6.3810579    2.7179591   0.01356267  0.017372851            4     5.615979    888.67536   0.97223355 
   16800   0.96543198    -6.386767    2.7333291   0.01355818  0.017377682            4    5.3700156    891.96503   0.96864784 
   16900   0.93867269    -6.317753    2.7273624  0.013448532  0.017378052            3    5.7549367      891.355   0.96931077 
   17000    0.9379706   -6.2728391     2.749148  0.013476215  0.017374174            2    5.9344689    891.96858   0.96864398 
   17100   0.95632769   -6.3789379     2.760621  0.013453318  0.017369598            2    5.4647772    891.38351   0.96927976 
   17200   0.93235952    -6.433478    2.7922487  0.013528337  0.017363062            3    5.1361424    890.95327   0.96974783 
   17300   0.94333355   -6.4073809    2.8186129  0.013577133  0.017359569            9    5.2746347    891.24488   0.96943053 
   17400    0.9267284   -6.3658024    2.8627582  0.013710527  0.017359931            8    5.3242955    893.10931   0.96740678 
   17500   0.99995023   -6.3883267    2.8836449  0.013731642  0.017364906            3    5.1098499    896.52405   0.96372205 
   17600   0.90823599   -6.3683685    2.9014443  0.013737899  0.017365813            2    5.2591013    894.09841   0.96633658 
   17700   0.97209871    -6.388162    2.9191802  0.013743786  0.017368368            2     5.431612    891.60132   0.96904297 
   17800   0.92457032   -6.4242615    2.9153076  0.013648443   0.01736989            5    5.6104424    884.30926   0.97703376 
   17900   0.96943803   -6.4178074    2.9363716  0.013670259  0.017367141            4    5.4556639    888.10313   0.97285998 
   18000   0.93522909   -6.4057042    2.9544093  0.013677821  0.017361388            3    5.1706654     892.9613   0.96756713 
   18100   0.95041935   -6.3840945     2.984884   0.01374256  0.017357719            3    5.1784751    894.52816   0.96587233 
   18200   0.88823919   -6.4014302    2.9929757  0.013704101  0.017353545            2    5.2480442    891.13909   0.96954562 
   18300   0.94135145   -6.3532768    3.0192639  0.013748925  0.017348959            7     5.344284    895.20731   0.96513957 
   18400   0.98137394   -6.3441728    3.0252592  0.013701355  0.017345231            3    5.5677183       892.38    0.9681974 
   18500   0.95917218   -6.4116021    2.9999278  0.013513188   0.01733292            5    5.5115673    887.92881   0.97305099 
   18600   0.96805392   -6.4065788    3.0442642  0.013639176  0.017317728            7    5.4584984    888.67001    0.9722394 
   18700   0.96783827   -6.3063257    3.0668801  0.013667023  0.017308711            4     5.973691    889.49994   0.97133227 
   18800   0.97892766   -6.2494829    3.0941105  0.013715029  0.017303743            8    6.3441791    888.08479   0.97288007 
   18900   0.96222253   -6.3437407    3.0966228  0.013653539  0.017297867            6    5.9378065    886.94531   0.97412996 
   19000    0.9335113   -6.3871238    3.1422835  0.013781945  0.017288529            7    5.5864128    888.00898   0.97296314 
   19100   0.98383182   -6.3527456    3.1832637  0.013888585  0.017285301            2    5.3100485    896.20807   0.96406184 
   19200   0.89181168   -6.3103242    3.1740639  0.013776318  0.017278546            5    5.5322981      894.404   0.96600641 
   19300   0.95730661   -6.3466941    3.2013092  0.013822578  0.017269798            4    5.3624772    895.09001   0.96526605 
   19400   0.99846439   -6.2875003    3.2236438  0.013847267  0.017265151            5    5.7130185    894.77819   0.96560244 
   19500    0.9201597   -6.2680626    3.2713224   0.01398001  0.017264222            5    5.9678203    891.58817   0.96905728 
   19600   0.96518832   -6.3372518    3.3229357  0.014128127  0.017268778            1    5.3661766    896.07233   0.96420788 
   19700   0.95765178   -6.2984098    3.3351868  0.014108235  0.017274737       -1e+20    5.5048642    896.68088    0.9635535 
   19800   0.95353502   -6.3658339    3.3053335  0.013911336  0.017273264            6    5.5267185    891.69062   0.96894594 
   19900   0.95024821   -6.3769047    3.3095562  0.013859113  0.017264301            2    5.3645671    893.05905   0.96746122 
   20000      0.96246   -6.3600701    3.3458973  0.013941238  0.017255407            3    5.2816922    895.88804   0.96440622 
   20100   0.94498527   -6.2798883    3.3548302  0.013908914  0.017248764            2    5.8161276    893.51085   0.96697203 
   20200   0.93247072   -6.2874643    3.4066049   0.01405365  0.017245251            1    5.7239387    894.69419   0.96569309 
   20300   0.97420496   -6.3708678    3.4246332  0.014058428  0.017245861            4    5.7148298    888.60744   0.97230786 
   20400   0.94576818   -6.3185581    3.4489806  0.014088973  0.017246387            1    5.7331954    891.72103   0.96891289 
   20500   0.97296472   -6.3624862    3.4672262  0.014094415  0.017244349            2    5.3304938    894.97503   0.96539007 
   20600   0.92905647   -6.3667489     3.477644  0.014068139  0.017242399            2    5.6534838    889.21368   0.97164497 
   20700    0.9439852   -6.3232697    3.5113035  0.014135682  0.017241849            1    5.9350595    887.65815   0.97334768 
   20800   0.98166039   -6.3257636     3.533309  0.014155885  0.017243211            2    6.0683013    886.54585   0.97456888 
   20900   0.96225124   -6.3354889    3.5612429  0.014199533  0.017245952            6    6.0324138    886.27724   0.97486425 
   21000   0.94373955   -6.2668043    3.5644486  0.014144637  0.017247721            1    6.4710641     883.9961   0.97737988 
   21100   0.94367301    -6.362848    3.5714841  0.014105387  0.017247423            6    5.9800495    884.02647    0.9773463 
   21200   0.95402431   -6.3959305    3.5949247  0.014130993  0.017243057            1     5.565861    887.49383   0.97352789 
   21300   0.95003773   -6.3187153    3.6147072  0.014142046  0.017239805            7    5.6825559    892.33965   0.96824119 
   21400   0.89703813   -6.3376178    3.6435375   0.01418823  0.017237502            6    5.5491378    892.30911   0.96827432 
   21500   0.97310064   -6.3403206    3.6733751  0.014237888  0.017235122            5    5.7649335    889.05275   0.97182085 
   21600   0.96211386   -6.3056522     3.661081  0.014124541  0.017233377            3    6.3433731    883.19053   0.97827135 
   21700   0.98390048   -6.3841468    3.6926267  0.014180594  0.017231622            6    6.0029451    883.56107    0.9778611 
   21800   0.97055781   -6.2537745    3.6920443  0.014113319  0.017228427           16    6.2281598    888.96467   0.97191714 
   21900   0.99684839    -6.348166    3.6736782  0.013978988  0.017220032           17    5.9417808    886.23743   0.97490804 
   22000   0.90381966   -6.3274326    3.6943431  0.013993723  0.017206414           10    5.8765348    887.88435   0.97309971 
   22100   0.96460368   -6.3533151    3.7276279  0.014055912   0.01719476            5    5.7362596    888.86593    0.9720251 
   22200   0.94408522    -6.387474    3.7808697  0.014192453  0.017188464            4    5.3938575    891.94386   0.96867084 
   22300   0.95018558   -6.3136184    3.8306704  0.014314911  0.017184541            4    5.4427558    896.20771   0.96406222 
   22400   0.91528432   -6.3477754    3.8260647  0.014233872    0.0171814            1    5.3229476     894.8906   0.96548115 
   22500   0.93880888   -6.3892684    3.8676694  0.014324701  0.017176286            1    5.0310019    896.37462   0.96388271 
   22600   0.97549945   -6.3469315    3.8679178  0.014262234  0.017172251            2    5.4647169    893.08249   0.96743583 
   22700   0.93224847   -6.3743383    3.8813846  0.014248842  0.017168057            3    5.3720345     891.7897   0.96883828 
   22800   0.91766257    -6.404368    3.8876779  0.014209349   0.01716069            3    5.3734182    890.06593    0.9707146 
   22900   0.95021922   -6.3697855    3.9358958  0.014322764  0.017154159            2    5.2197073    895.22524   0.96512024 
   23000   0.95265098   -6.4147941    3.9690719  0.014380695  0.017150171            2     4.922897    896.57198   0.96367054 
   23100   0.89791913    -6.405593    4.0196702  0.014500974  0.017149291            1    5.2102465    891.22144   0.96945603 
   23200   0.94002022   -6.3641185    4.0238724  0.014453564  0.017150583            4    5.6591161    888.92772   0.97195755 
   23300   0.95525644   -6.3429186    4.0425391  0.014458294   0.01715034            5    5.6592258     890.2553   0.97050813 
   23400   0.94360684   -6.3099908    4.0609875  0.014462206   0.01715148            3    5.6764408    893.70497   0.96676199 
   23500    0.9457387   -6.3951377    4.0676189   0.01442418   0.01714911            7    5.5177132    888.87811   0.97201179 
   23600   0.96675521   -6.3307995    4.0629753  0.014346664  0.017146354            4    5.8946544    888.78276   0.97211607 
   23700    0.9580173   -6.3396673    4.0803769  0.014347316  0.017143231            2    6.0453728    885.52225   0.97569542 
   23800   0.95583838    -6.368815    4.1403689   0.01449709  0.017142668            2    5.7107584    888.43006   0.97250199 
   23900   0.94316931    -6.349534    4.1575958  0.014496498   0.01714285            4    5.7009779    890.04358   0.97073899 
   24000    0.9141962   -6.3960957    4.1636123  0.014456987  0.017139892            4    5.3316089    891.37146   0.96929287 
   24100   0.90789041   -6.4112182     4.179412  0.014451632  0.017135637            4    4.9911187    894.81628   0.96556133 
   24200   0.92882499   -6.3965671     4.231688  0.014571928  0.017132253            2    5.1139929    894.42628   0.96598235 
   24300   0.98673483    -6.385333    4.2664551   0.01463119  0.017134237            4     5.364922    892.49939   0.96806789 
   24400    0.9756708   -6.3845539     4.268181  0.014577121   0.01713657            3    5.5620682    889.25251   0.97160254 
   24500   0.93070561   -6.3731049    4.2928631  0.014601575  0.017137013            4    5.7830431     886.2283   0.97491808 
   24600   0.94406048   -6.3169887    4.3458165    0.0147216  0.017141591            4    5.6375205     892.3107    0.9682726 
   24700   0.94779604   -6.3712261    4.3605474  0.014711698  0.017144865            4    5.4609549    890.84926   0.96986105 
   24800   0.95062243   -6.4023449    4.3855487  0.014736386  0.017149007            3    5.0908675    895.53409   0.96478739 
   24900   0.94591718   -6.3658895    4.3792969  0.014656281  0.017150625            2    5.5838192    889.16063   0.97170294 
   25000   0.92754898   -6.3917107    4.4003238  0.014667746  0.017150983            5    5.6218407    886.38631    0.9747443 
   25100   0.94449285   -6.4093245    4.4426251  0.014749751  0.017153397            6    5.2949506    890.50512   0.97023586 
   25200    0.9625992   -6.3699551    4.4755928  0.014800241  0.017157205            2    5.3540512    892.39472   0.96818143 
   25300   0.92192922   -6.4302527    4.4911348  0.014792934  0.017160416            5    5.2735465    888.92047   0.97196547 
   25400   0.92557626   -6.3822375     4.529725  0.014861302  0.017164998            9    5.5701455    889.21155    0.9716473 
   25500   0.97283232    -6.374747    4.5412729  0.014840761  0.017170877           10    5.6859685    887.56916   0.97344527 
   25600   0.95421333   -6.4363147    4.5420784  0.014785411  0.017174659            5    5.6112993    884.23734   0.97711322 
   25700   0.91471854   -6.3891941    4.5754607  0.014836124  0.017177773           14     5.791423     884.3565   0.97698157 
   25800   0.95921713   -6.3663281    4.6418809  0.014993155  0.017185174            8    5.6325527    890.03093   0.97075278 
   25900   0.90034995   -6.3595914    4.6875727   0.01508228  0.017195369            6    5.8473195    885.07939   0.97618361 
   26000   0.93301679   -6.3854437     4.688857  0.015028388   0.01720597            6    5.8493315    883.28377   0.97816809 
   26100   0.96062106   -6.4204497    4.7169034  0.015060355  0.017214683            3    5.4622079    887.55696   0.97345865 
   26200   0.93394283   -6.4150343    4.7665535  0.015160793  0.017225841            4    5.4974888     887.4019   0.97362875 
   26300   0.94616294   -6.3707894    4.7836159  0.015157211  0.017236499            3    5.5273769    891.02846   0.96966599 
   26400   0.94314748   -6.3602124     4.775413  0.015073904  0.017245663            3    5.6759954    889.66876   0.97114796 
   26500   0.95162906   -6.3960586    4.8021289  0.015101034  0.017253415            4    5.6560294    886.97574   0.97409654 
   26600   0.97586332   -6.4351452    4.8104745  0.015070409  0.017261158            2    5.2697699    889.77732   0.97102947 
   26700   0.95199005   -6.4298789     4.848901  0.015133898  0.017268239            3    5.3756933    888.44505   0.97248558 
   26800   0.92997784   -6.4847896    4.8421053  0.015056297  0.017274673            4    5.1013864    888.07274   0.97289327 
   26900   0.94493818   -6.3865801     4.884876  0.015132825  0.017280401            3    5.3735652     892.2606   0.96832696 
   27000   0.95832601   -6.4208545    4.9194606   0.01518352  0.017287668            5    5.0841827    894.29904   0.96611979 
   27100   0.90696033   -6.3468616    4.9588577   0.01524864  0.017294997            9    5.1930641    896.42134   0.96383248 
   27200   0.92354826   -6.4347116    4.9191702  0.015070987  0.017300449            5    5.0444347    892.41515   0.96815927 
   27300   0.95345737   -6.3716538    4.9412976  0.015083326  0.017303663           10    5.4267035    891.48866   0.96916544 
   27400   0.97275896    -6.365145    4.9750024  0.015130785   0.01730814            4    5.5319074    890.90537   0.96979997 
   27500   0.90431688   -6.3755576    5.0034718  0.015162036  0.017314302            4    5.6884996    886.48642   0.97463422 
   27600   0.91543614   -6.3871663    5.0309327  0.015190014  0.017321088            4    5.6987137    886.45362   0.97467028 
   27700   0.94627414    -6.371741    5.0239548  0.015114184  0.017326634            4    5.4987989    890.77103   0.96994622 
   27800   0.96916973   -6.3681846    5.0080197  0.015012049  0.017329107            8    5.9560092    884.22504   0.97712682 
   27900    0.9421326   -6.3601336     5.027499  0.015016424  0.017330402            3    5.9622834    885.09458   0.97616687 
   28000    1.0017636   -6.3084131    5.0467694  0.015020147  0.017332135            3    6.2897942    885.20481   0.97604531 
   28100    1.0172222   -6.2901483    5.0288465  0.014913542  0.017333933           10    6.3599629    885.13589   0.97612131 
   28200   0.93475119   -6.2657659    5.0465309  0.014912916  0.017332655            2    6.4369903    884.16053   0.97719811 
   28300   0.94308487   -6.2975691      5.08697  0.014979299  0.017333044            5    6.3291174    884.12757   0.97723454 
   28400   0.97541114    -6.301964    5.0902855  0.014936283  0.017332511           15    6.1590588     887.2159   0.97383286 
   28500   0.95549182   -6.3330363    5.1032141  0.014921678  0.017330856            7    6.0280419    886.53024   0.97458604 
   28600   0.95014342    -6.316484    5.0980702  0.014854517  0.017327576           11    6.1728487    885.01003   0.97626012 
   28700   0.96338506   -6.2855354    5.1389842  0.014921557  0.017324015            5    5.8562081    893.08835   0.96742949 
   28800   0.99827039   -6.2753555    5.1646052   0.01494388  0.017321434            1    5.7502214     894.4956   0.96590749 
   28900   0.96028047   -6.3488978    5.1472544  0.014842141  0.017316759            2    6.0127757    884.63356   0.97667559 
   29000   0.93770503   -6.3433951    5.1984471  0.014938066   0.01731301            9    5.8910585     886.4315    0.9746946 
   29100    1.0458222   -6.3644759    5.2162083  0.014937595  0.017309518            3    5.6644488    890.07951    0.9706998 
   29200   0.96492285   -6.3225136     5.200299  0.014841036  0.017306338            1     6.449965    880.47516   0.98128833 
   29300   0.98905603   -6.3413765    5.2383053  0.014898479  0.017302509            6    6.1136189    884.92486   0.97635408 
   29400    0.9425879   -6.3015437    5.2786519  0.014962165  0.017299219            3     6.038185    888.20673   0.97274652 
   29500   0.95353031   -6.3724377     5.282574  0.014922525   0.01729578            2    5.8451264    885.61241   0.97559609 
   29600   0.92745055   -6.3878983    5.3238524  0.014988323  0.017291898            2    5.6608681    887.20326   0.97384674 
   29700   0.94970119   -6.3750289    5.3716402  0.015071942  0.017289952            1    5.4099735    891.54925   0.96909958 
   29800   0.91833239   -6.4236496    5.3812372  0.015048202  0.017286553            2    5.2562663    889.83991   0.97096118 
   29900    0.9222831   -6.3650225    5.4470335  0.015181252  0.017285207            4    5.4136236    892.24517   0.96834371 
   30000    0.9304999   -6.3655519    5.4818069  0.015227241  0.017287025            2    5.5712589    891.09498   0.96959361 
   30100    0.9505278   -6.4074644    5.4985895  0.015223116  0.017288866            1    5.5017877    888.25951   0.97268871 
   30200   0.95519174   -6.3543805    5.5145984  0.015216883  0.017291096            4    5.9120946    885.96707   0.97520554 
   30300   0.95210784    -6.297387    5.5192913  0.015179569    0.0172935            4    6.2480492    885.11478   0.97614458 
   30400   0.98417732     -6.23216    5.5484995  0.015209702  0.017295848            4    6.2705902    890.41619   0.97033276 
   30500    0.9898894   -6.2657681    5.5417957  0.015141518  0.017298239            5    6.4610225    885.73565   0.97546034 
   30600   0.97382625   -6.3070039    5.5398894  0.015086845  0.017298119            6    6.3641044     884.0868   0.97727961 
   30700   0.96470691    -6.349964    5.5274415  0.015003913  0.017296613            9    6.1775926    881.73759   0.97988337 
   30800    0.9418765   -6.4138633    5.5577582  0.015037224  0.017293417           13    5.7398264    883.76317   0.97763748 
   30900   0.91985461   -6.3969016    5.5970259   0.01509446  0.017289423            7    5.5648147    887.07137   0.97399153 
   31000   0.93845284   -6.3522858    5.7098274  0.015348998  0.017289378            7    5.3666861    894.89367   0.96547783 
   31100   0.96051425   -6.3853313    5.7550695  0.015420872  0.017293902            7    5.4318598    890.75869   0.96995967 
   31200   0.94498167   -6.3709366      5.76512   0.01539829  0.017299553            5    5.8887984    885.11667    0.9761425 
   31300    1.0128547    -6.395778    5.7494936  0.015307491  0.017303625            9    5.9261365    884.15115   0.97720848 
   31400   0.94296735   -6.3624828    5.7465496  0.015250928  0.017306449            4    6.2083303      880.992   0.98071266 
   31500    0.9524859   -6.4054501    5.7168601  0.015123968  0.017306178            4     6.147702    878.33919   0.98367465 
   31600   0.97630937   -6.3874868    5.7784996  0.015238659  0.017304972           10    5.9065881    883.87517   0.97751361 
   31700   0.95488265   -6.4045855    5.8450128  0.015365438   0.01730689            4    5.5112654    889.27907   0.97157353 
   31800   0.93794934   -6.3048635    5.8458275  0.015319254   0.01730866            6    5.7735994     891.8474    0.9687756 
   31900   0.91569321   -6.3230659    5.8430641  0.015264013   0.01730933            4    5.7318396    890.96946   0.96973021 
   32000   0.95936726   -6.3462341    5.8556233  0.015249019  0.017308672            2    5.8079218    889.08033    0.9717907 
   32100     0.976316   -6.3780234    5.8684789  0.015234888  0.017308642            7    5.6886859    887.54373   0.97347316 
   32200   0.94614325   -6.4125415    5.8921959  0.015248954  0.017307205            7    5.7020429    884.66501   0.97664087 
   32300    0.9598119   -6.3372087    5.9282022  0.015294639  0.017306692            3    5.8006578    888.83423   0.97205977 
   32400   0.97735767   -6.3517244    5.9887513  0.015403167  0.017308152            4    5.5322647    892.19948    0.9683933 
   32500   0.95484701   -6.3886176    6.0185948  0.015432294  0.017310996            2    5.7218374     885.3297   0.97590762 
   32600   0.97542347   -6.4360473    6.0201446  0.015388917  0.017313546            2    5.4663375    886.33413   0.97480168 
   32700   0.94743044   -6.3199913    6.0303843  0.015367951  0.017315478            3    6.0923237    886.27401    0.9748678 
   32800    0.9554072   -6.3279115    6.0863592  0.015463311  0.017318167            4    5.7750001    890.62834   0.97010162 
   32900    0.9436606   -6.3382273     6.075787  0.015389531  0.017321237            3    6.0072314    885.69348   0.97550679 
   33000   0.91302489   -6.3495961    6.1547824   0.01554238  0.017324672            3     5.851776     887.0753   0.97398721 
   33100   0.95770341   -6.3761816    6.2061556  0.015624762  0.017330313            3    5.7883081    886.80578   0.97428323 
   33200   0.93890753   -6.3115122    6.2504902  0.015688981  0.017338091            3    6.0385162    887.35665   0.97367839 
   33300    0.9662613   -6.3955227    6.2824045  0.015721733  0.017346757            3    5.9484263    882.52892   0.97900474 
   33400    0.9262696   -6.3107384    6.2548168   0.01560583  0.017354925            4    6.3521893    882.44141   0.97910183 
   33500   0.97951923   -6.3629337      6.27529  0.015610174  0.017361146            9    6.0449657     882.8894   0.97860503 
   33600   0.93662165   -6.3449865    6.3055733  0.015638823   0.01736687           10    6.0372835    884.26316    0.9770847 
   33700   0.96500476   -6.3520062    6.3545757   0.01571359  0.017374154            3    5.9480414    885.44512   0.97578041 
   33800   0.92203867   -6.3588942    6.3546571    0.0156673  0.017380918            4     6.002506    884.18892   0.97716674 
   33900   0.94334305   -6.3154754    6.4215719  0.015785575  0.017388058            4     5.738773     891.8363   0.96878766 
   34000   0.97044522   -6.3094911    6.4225222  0.015741476  0.017395331            5    5.7796677    891.19412   0.96948575 
   34100    1.0044928   -6.4256004    6.4630606   0.01579438  0.017403228            5    5.4588106    888.58269   0.97233495 
   34200   0.93444608   -6.3711037    6.4499144  0.015716165  0.017409693            3    5.8243297    886.09617   0.97506346 
   34300   0.96821019   -6.3101224     6.509936  0.015816171  0.017416865            5    5.7667197    891.93146   0.96868429 
   34400   0.96007766   -6.2720372    6.5252374  0.015807261  0.017425246            1     5.996148    891.53776   0.96911206 
   34500   0.96222438   -6.3820473    6.4959263  0.015690643  0.017431436            2    5.9524692     883.9329   0.97744976 
   34600   0.91794409   -6.3173011     6.499821  0.015654675  0.017436134            2    6.3480173    882.39345   0.97915505 
   34700   0.96727486   -6.3173412    6.5623948  0.015759834  0.017441378            2    5.8681055     889.8636   0.97093532 
   34800   0.95635325    -6.345193    6.5638487  0.015718028  0.017446974            5    5.8402089    887.76648   0.97322891 
   34900   0.93356888   -6.3379584    6.5880481  0.015730774  0.017451961            7    6.1134374    883.46792    0.9779642 
   35000    1.0016936   -6.4211203    6.5938459  0.015699633  0.017457217            6    5.9161434     881.5904   0.98004697 
   35100   0.95166033   -6.3165508    6.6173852  0.015710791  0.017462444            2    6.0887497    886.12784   0.97502861 
   35200   0.97277796   -6.3586205    6.6251175  0.015684464  0.017466373            2     5.996125    884.80211   0.97648953 
   35300   0.92730907   -6.4005356    6.6200598  0.015628092  0.017469746            4    6.4069277    874.90686   0.98753368 
   35400   0.92771098    -6.354507    6.6231673   0.01559126  0.017472118            2    6.3085823    879.58489   0.98228154 
   35500   0.94608525   -6.3049745     6.655408  0.015623023  0.017473996            3    6.1850051    885.16641   0.97608765 
   35600    1.0088302   -6.3657679    6.7241331  0.015740012  0.017477257            3    5.7658705    887.96468   0.97301167 
   35700   0.95230124   -6.3872582    6.7396188   0.01573207  0.017481066            5     5.780971    884.71712   0.97658334 
   35800    0.9716696   -6.3496863    6.7387427  0.015686086  0.017483471            9    6.0563762    884.41748    0.9769142 
   35900   0.99361539   -6.3183954    6.7961521  0.015775655  0.017487228            3    6.0376901    887.62764   0.97338113 
   36000   0.96372183   -6.3699824    6.8228537  0.015793643  0.017491972            3     5.921362    883.86973   0.97751962 
   36100   0.97097454   -6.4337189    6.8071332  0.015713604  0.017495391            5     5.959192    878.95929   0.98298068 
   36200   0.97045371   -6.4144839    6.8673011  0.015808704  0.017499275            6     5.905968    881.59393   0.98004305 
   36300   0.97453777   -6.3662757    6.9385907  0.015928812  0.017505464            7    5.9245877    885.37726    0.9758552 
   36400   0.96483369   -6.3451995    6.9491401  0.015909203  0.017512278            3    5.7412575    889.56737   0.97125864 
   36500   0.94719736   -6.3750527    6.9263375  0.015813556  0.017516465            4    5.7996736    885.43746   0.97578885 
   36600   0.93264941   -6.3291708    7.0040697  0.015947335  0.017521522            1    5.7103782    890.59116   0.97014212 
   36700   0.94785737   -6.3313532    7.0535358  0.016016203  0.017527906            1    5.5506261    893.54147   0.96693889 
   36800   0.94262299   -6.3120569    7.0810179  0.016034913   0.01753515            4    5.7784332    891.40208   0.96925957 
   36900   0.94171757    -6.360751      7.08276  0.015995393  0.017542167            7    5.7448581     888.4677   0.97246078 
   37000   0.91701787   -6.4362868    7.1175075  0.016030422  0.017548481            9    5.2895797    888.81548   0.97208028 
   37100   0.93906711   -6.3593944    7.1444813  0.016047802  0.017554299            5    5.3515836    893.70263   0.96676453 
   37200   0.94633643   -6.3989635    7.1304652  0.015973264  0.017559455            3    5.3051596    891.38233   0.96928104 
   37300   0.89063093   -6.3481653    7.1032842  0.015869714    0.0175629            9    5.9665069    884.71117   0.97658991 
   37400   0.97253267   -6.3539518    7.0872797  0.015791621   0.01756587           24    6.0975946     883.4789   0.97795205 
   37500    0.9540233   -6.3906574    7.0375579  0.015639017  0.017566959           26    6.4684696    875.62684   0.98672169 
   37600   0.96224719     -6.36347    7.0548637  0.015635779   0.01756626           14    6.4308674    877.64907   0.98444815 
   37700   0.97009336   -6.3180974    7.1137238  0.015724411  0.017566791            6    6.2427654    883.92473   0.97745879 
   37800   0.90946902   -6.3499295    7.1157615  0.015687305  0.017566913            2    5.9119838    885.65864   0.97554516 
   37900   0.99832091   -6.3876011    7.1373339  0.015693346  0.017566039            3    5.5208779    889.23938   0.97161689 
   38000   0.95025611   -6.3311519      7.20792  0.015806842  0.017566181            5    5.6450439    890.98709   0.96971102 
   38100   0.97277573   -6.3155417     7.233417  0.015821122  0.017566944           10    5.6748736    892.57314    0.9679879 
   38200   0.92300596   -6.3225404    7.2162633  0.015742284  0.017567689            4    6.0641264    885.64877   0.97555603 
   38300   0.95906116   -6.3367689    7.2291305  0.015729178  0.017567094            7    5.9289268    887.41449   0.97361493 
   38400     1.002504   -6.3588469    7.3004526  0.015842996  0.017567677            2    5.6314973     890.2787   0.97048262 
   38500   0.94156288   -6.3625352    7.2698728  0.015735655  0.017568293            7    5.8360724    886.59507   0.97451478 
   38600   0.93286379   -6.4345993    7.2608345  0.015675377  0.017566645            4    5.5598864    884.84989    0.9764368 
   38700    0.9797163   -6.4529113    7.2853232  0.015687603  0.017564171            5    5.7067798    882.26632   0.97929614 
   38800   0.93593433   -6.3284167    7.3424932   0.01576996  0.017563453            3    5.8478632    889.12554   0.97174129 
   38900   0.95073127   -6.3567543    7.3297477  0.015702116  0.017562014            2    5.4604121    892.42073   0.96815322 
   39000   0.95596299   -6.3632769      7.35433   0.01571438  0.017559461            3    5.4365943    892.93398   0.96759674 
   39100   0.90458667    -6.376047    7.3792438  0.015727288  0.017557561            4    5.7618578    885.98478   0.97518605 
   39200   0.95537793    -6.361411    7.4212726  0.015776515  0.017556861            3    5.8678777     886.0618   0.97510129 
   39300   0.93132434   -6.3608463    7.4759226  0.015852253  0.017556785            7    5.7274433    888.02982    0.9729403 
   39400   0.95749407   -6.4097517    7.5212856  0.015907964  0.017558263            6    5.6472772    886.30495   0.97483378 
   39500   0.93857201   -6.3485597      7.54889  0.015925928  0.017559935            5    5.8766159    886.76456   0.97432852 
   39600    0.9639118   -6.3271174    7.5948254  0.015982376  0.017563077            6    5.7332203    891.33669   0.96933068 
   39700   0.95745204   -6.3529115    7.6481441  0.016054039  0.017566144            2    5.5182788    892.25707    0.9683308 
   39800   0.95084066    -6.394242    7.6504491  0.016018528  0.017569902            3    5.5758032    887.83075   0.97315846 
   39900   0.94752054   -6.4219918    7.6551545  0.015988209  0.017572012            7    5.3571462    889.20477    0.9716547 
   40000   0.96311124   -6.4025241     7.656551  0.015951148  0.017573482            4    5.2930897    891.46376   0.96919251 
   40100   0.98380985   -6.3067401    7.6896925  0.015980242  0.017575282            2    5.6367671    893.89801   0.96655322 
   40200   0.94152783   -6.3610855     7.679573  0.015919513  0.017576445           11    5.2592376     895.0864   0.96526994 
   40300   0.93259297   -6.4077471    7.6747552  0.015870048  0.017575772            5    5.0996479    894.46763    0.9659377 
   40400   0.97423792    -6.395469     7.704417  0.015891949  0.017574814            2    5.0992922    895.48116   0.96484441 
   40500   0.96546806   -6.3108728     7.703533  0.015850891  0.017574233            3    5.5645871    895.95211   0.96433726 
   40600   0.93589649   -6.3552032    7.6671911  0.015737256  0.017572702            5    5.9576926    884.62174   0.97668864 
   40700   0.92684087   -6.3566487    7.6534048  0.015670362  0.017570072            6    6.2023559    881.08329   0.98061103 
   40800   0.92006058   -6.3874608    7.7114741   0.01575056  0.017567702            4    5.9250829    882.64955   0.97887095 
   40900   0.94851984   -6.3047937    7.7507691  0.015792113  0.017566456            1    6.0323135    888.00479   0.97296772 
   41000   0.97137662   -6.2363788    7.7947703  0.015843029  0.017566112            6    6.3413778    888.58579   0.97233155 
   41100   0.96503665   -6.2897517    7.8258748  0.015867548  0.017566935            3    6.2861439    885.78691   0.97540389 
   41200   0.93627419   -6.3130747    7.8397612  0.015857122  0.017567522            6    6.0921823    886.68003    0.9744214 
   41300   0.91242734   -6.3896342    7.8688931  0.015877508  0.017567381            5    5.7609692    885.24227     0.976004 
   41400    0.9260298   -6.4005632    7.9087382   0.01591936  0.017566833            2    5.5845502    887.00557   0.97406378 
   41500   0.96699384   -6.3982005    7.9633562  0.015990675  0.017567587            3    5.4530912    890.26122   0.97050167 
   41600   0.84366858   -6.3575681    7.9652948  0.015956119  0.017568289            1    5.6998053    886.97206   0.97410058 
   41700     0.927331   -6.4030804    8.0211427  0.016029462  0.017568966            2    5.2057279    892.87534   0.96766028 
   41800   0.93278859   -6.3575574    8.0475927  0.016043845  0.017570091            3    5.4009816    893.15174   0.96736082 
   41900   0.99367603   -6.3962922    8.0269052  0.015964409  0.017571001            4    5.3721535    891.31606   0.96935312 
   42000   0.91425931   -6.3542199    8.0023651  0.015877708  0.017570845            5    5.9076889    886.01639   0.97515126 
   42100    0.9009928   -6.3992168    8.0185265  0.015871984  0.017569776            3     5.776006    883.14859   0.97831782 
   42200   0.97944392   -6.4428537    8.0491485  0.015894843  0.017568564            3    5.6622634    882.72359   0.97878884 
   42300   0.93225274   -6.3634456     8.107047   0.01597133  0.017568744            3    5.6993679    888.67551   0.97223339 
   42400   0.99677179   -6.3576879    8.1436792  0.016005659  0.017569481            7    5.5791104     892.0429   0.96856329 
   42500    0.9478892   -6.3914485    8.1821474  0.016043426  0.017570379            9    5.3551438    890.95926   0.96974131 
   42600   0.93625684   -6.3590608    8.2084995  0.016057315  0.017571565           10    5.7856848    887.52734   0.97349114 
   42700   0.97787449   -6.3591743    8.2455685  0.016092054  0.017573655           20    5.7553879    888.58647    0.9723308 
   42800   0.92005132   -6.3329419    8.2790096  0.016119567  0.017576488            8    6.0618744    886.23406   0.97491176 
   42900   0.97442376   -6.3761522    8.2634198  0.016051709  0.017578745            4    6.0119536    884.00912   0.97736549 
   43000   0.98887425   -6.2954003    8.3165112   0.01611727  0.017581501            6    5.9929805    891.38873   0.96927409 
   43100    1.0117607   -6.3709329    8.2463343  0.015944188  0.017583728            7    6.0302637    884.12502   0.97723736 
   43200     1.000165   -6.4255774     8.235615  0.015886603  0.017582935           10    5.7516278    883.41421   0.97802366 
   43300    0.9486008   -6.4120102    8.2615997  0.015899922  0.017582094            6     5.732468    884.66555   0.97664027 
   43400   0.93838822   -6.3387101    8.2553031  0.015851196  0.017580633           14    6.2339869    882.38822   0.97916085 
   43500   0.96013475   -6.3061069    8.2917557  0.015884589  0.017579506            9    6.2265566    884.33046   0.97701033 
   43600   0.95326408   -6.3144277    8.3692636  0.015996299  0.017579504            4    5.8594966    889.99064   0.97079673 
   43700   0.95424197   -6.3751383     8.382199  0.015984361  0.017579408            4    5.5019371    889.57666    0.9712485 
   43800   0.89246482    -6.406833    8.3619319  0.015909307  0.017577656           10    5.3978369    889.01486   0.97186227 
   43900   0.89833667   -6.3677826    8.4235674  0.015990067  0.017575663            4    5.2501158    894.29088    0.9661286 
   44000   0.94391604    -6.371936    8.4070908   0.01592252  0.017574196           15    5.5389117    890.06172    0.9707192 
   44100   0.93276905   -6.3481904    8.4033623  0.015879369  0.017572223           11    5.8114264    887.41561   0.97361371 
   44200   0.95759198   -6.3879528    8.4066406  0.015849624  0.017569519            6     5.583673    888.64909   0.97226229 
   44300   0.95742036   -6.4163783    8.4091424  0.015818552  0.017566259            3    5.6255115     884.8866    0.9763963 
   44400   0.93964125   -6.3043644    8.5081772  0.015968801  0.017564313            2    5.6839228    892.74405   0.96780259 
   44500   0.95352079   -6.3134087    8.5725054  0.016053381  0.017563895            4    5.5536346    895.22724   0.96511809 
   44600   0.92611069   -6.3447714    8.5730309  0.016018368  0.017563813            4    5.4284603    893.34222   0.96715456 
   44700   0.91033237   -6.3079307    8.5577834  0.015954107   0.01756254            3     5.848631     890.1139   0.97066229 
   44800   0.99598612   -6.3704357     8.593159  0.015984299  0.017561227            2    5.1823084    896.69795   0.96353516 
   44900   0.90453825   -6.3700833    8.5833529  0.015930499  0.017558822            1    5.2443231     894.1731   0.96625587 
   45000   0.96793628   -6.3740579     8.609248  0.015943052  0.017556585            7    5.3561416    892.69978   0.96785058 
   45100   0.90479412   -6.3624335    8.6055188  0.015900811  0.017554292            4    5.6008268    889.85996   0.97093929 
   45200   0.91723298   -6.3908146    8.6244681  0.015900568  0.017550999            7    5.4418254     889.6138   0.97120795 
   45300   0.95778407   -6.3680118    8.6517727  0.015915697  0.017548641            6    5.4258003    891.88199   0.96873803 
   45400   0.89938754   -6.3627985    8.6764343  0.015925907  0.017545904           12    5.4269856    891.93893   0.96867619 
   45500   0.98098558   -6.4031151    8.7002705  0.015934561  0.017543321           11    5.2769328    893.07318   0.96744591 
   45600   0.95189839   -6.3420862    8.6822193  0.015866629  0.017540634           10    5.7108309    890.42534   0.97032279 
   45700   0.94744488     -6.38706    8.6802709  0.015828357  0.017537788            9     5.665583    887.56516   0.97344966 
   45800    1.0025857   -6.4166183    8.7806511  0.015976439    0.0175355            5    5.1052795     895.0001   0.96536302 
   45900   0.94097704   -6.3975042    8.7807405  0.015941794   0.01753327            5    5.1082859    894.56912   0.96582811 
   46000   0.89937251   -6.3802862    8.7882343  0.015920714  0.017530099            3    5.0870707    896.13856   0.96413661 
   46100   0.95170958   -6.3397068    8.8091749  0.015924032  0.017526893            6    5.4017215    894.62433   0.96576851 
   46200   0.98557647   -6.4202246    8.8096514  0.015890424  0.017524425            3    5.5265277    887.01022   0.97405868 
   46300   0.94949412   -6.3989217    8.8111185  0.015858744  0.017521827            7    5.5770746    887.12067    0.9739374 
   46400     0.976205   -6.4191283    8.7758428  0.015761212  0.017517598            4    5.6553309    885.09216   0.97616953 
   46500   0.91934555   -6.4343807     8.838351  0.015839338   0.01751335            8    5.4413998    886.40277    0.9747262 
   46600   0.92165352   -6.3690684    8.8544508  0.015834139  0.017509584            5    5.5105696    889.99984    0.9707867 
   46700    0.9816769   -6.4087179    8.8456757  0.015784575  0.017505281            7    5.5118907    887.98518   0.97298921 
   46800   0.94940558   -6.3805501    8.8836483  0.015818462  0.017501505            5    5.9819852    882.72033   0.97879246 
   46900   0.97895774   -6.3568245    8.9041409  0.015821146  0.017498863            4    6.1564399    882.27417   0.97928743 
   47000   0.94438787   -6.3337517    8.9910498  0.015941578  0.017496827            1    5.7934794    889.18431   0.97167707 
   47100   0.95710635   -6.3425765    9.0424929  0.015998749   0.01749553            1    5.5121127    892.84048   0.96769806 
   47200   0.92333157   -6.3373152    9.0707456  0.016014734  0.017494188            2    5.3343155    895.70953   0.96459843 
   47300   0.92326215   -6.4074225    9.0271456  0.015904062  0.017491675            4    5.4696062    888.01906   0.97295209 
   47400   0.98384501   -6.3726236    9.0779664  0.015959856  0.017489206            2     5.713636    888.22817   0.97272303 
   47500   0.91719598   -6.2976004    9.1076197   0.01597828   0.01748808            6     6.035344    888.19352   0.97276098 
   47600   0.98027682   -6.2967469    9.1549029  0.016027491  0.017487358            1    5.8996209     891.9624   0.96865069 
   47700    1.0204892   -6.3569773    9.1499223  0.015985189  0.017487071            2    5.8009517    888.25253   0.97269636 
   47800   0.93579494   -6.3301401    9.1191316  0.015898067  0.017485462            2    6.0988202    884.87088   0.97641364 
   47900    1.0155753    -6.352883    9.1335506  0.015889963  0.017483848            3    6.0327686    885.37092   0.97586219 
   48000   0.97548101   -6.3696396    9.1748934  0.015928634  0.017481935            6    5.8194651    886.19407   0.97495575 
   48100    0.9542794   -6.3923583    9.1583887  0.015866924  0.017480093            3      5.95626    882.23287   0.97933326 
   48200   0.95112199   -6.4180843    9.1514654  0.015822035  0.017476981            7    5.8715274    881.39487   0.98026439 
   48300   0.96890866   -6.3456793    9.1712845  0.015823472  0.017473918            8    5.7899195     889.2095   0.97164953 
   48400   0.95196586   -6.2984621    9.1521227  0.015757787  0.017469956            3    6.4471876    882.46919   0.97907101 
   48500   0.94898097   -6.3437593    9.1894736  0.015789473  0.017466269            1    6.1564413    883.24581   0.97821013 
   48600   0.96317994   -6.3029681     9.250446  0.015861533  0.017463191            3    5.7897249    892.26287    0.9683245 
   48700   0.96747583   -6.2986352    9.2388874  0.015809184  0.017459666            2    5.7809466    892.76555   0.96777928 
   48800   0.94280857   -6.3402326    9.2358654  0.015771628  0.017455678            7    5.8041041    888.51406   0.97241004 
   48900     0.929501    -6.379531    9.2445256  0.015754133  0.017451103            8    5.6982845    887.40972   0.97362016 
   49000   0.94061217   -6.3336138    9.2453582  0.015723398  0.017445987            2     6.078674    884.79596   0.97649632 
   49100   0.96762467   -6.3579126    9.2738386  0.015739712  0.017441355            5     5.882462    885.54568    0.9756696 
   49200   0.97968893   -6.4139977    9.3165978  0.015780145  0.017436819            8    5.4305824    888.86671   0.97202425 
   49300   0.96915852   -6.3229831    9.3771859  0.015850551  0.017432552            6    5.4521314    896.06607   0.96421461 
   49400   0.93037074   -6.3268199    9.3890961  0.015838556  0.017428617            4    5.5244289    894.64066   0.96575087 
   49500   0.97159464   -6.3511643    9.4093854  0.015840716  0.017424685            5    5.5388002      892.552   0.96801083 
   49600   0.93343312   -6.3851399    9.4064532  0.015803853   0.01742036            6    5.2546172    893.38168   0.96711184 
   49700   0.92004656   -6.4173391    9.3964234  0.015755237  0.017415087            7    5.1146119    892.70489   0.96784504 
   49800   0.94395732   -6.3655125    9.3859739  0.015706114  0.017409004            4    5.5767259    890.09748    0.9706802 
   49900   0.96779684   -6.3734994    9.4391648  0.015763468  0.017403957            3    5.4819846    892.57946   0.96798105 
   50000   0.94966107   -6.4162744    9.4724562  0.015787427    0.0173989            3    5.0886165    893.12291   0.96739205 
   50100   0.92402202   -6.3534565    9.4858889  0.015778258  0.017393999            4    5.4704126    892.20276   0.96838975 
   50200   0.96525392   -6.3502117    9.4640118  0.015710511   0.01738861            5    5.4071241    893.76725   0.96669463 
   50300   0.91461954   -6.3657497    9.4140877  0.015596567  0.017382531           10    5.9045714    884.11665   0.97724661 
   50400    0.9531712   -6.3666587    9.4492243  0.015623717  0.017375972            3    5.6783181    889.23533   0.97162132 
   50500    0.9439173   -6.3610824    9.4645161  0.015618013  0.017369637            4    6.1066033    882.43065   0.97911376 
   50600   0.93871319   -6.4000267    9.4640866   0.01558644  0.017363464            3    6.0327352    880.09119   0.98171645 
   50700   0.98069814   -6.3811759    9.5323504    0.0156679  0.017357412            4     5.691852     888.2007   0.97275311 
   50800   0.95689819   -6.3969411    9.5824825  0.015719295  0.017352082            5    5.5201426    889.35395   0.97149172 
   50900   0.99153895   -6.3633185    9.5123539  0.015573598  0.017346037           12    5.8337704    886.47414   0.97464772 
   51000    0.9262242   -6.3351209    9.5929873  0.015674816  0.017340337            9    5.7350702    890.26877   0.97049344 
   51100   0.96216161   -6.4695984    9.5943085  0.015646295  0.017334189            9    5.5701451    882.81015   0.97869287 
   51200   0.95560658    -6.437675    9.6187207   0.01565547  0.017328177            6    5.2963228    889.57857   0.97124642 
   51300   0.91500871   -6.4180333    9.6671967  0.015703698  0.017322007            5    5.3146108    888.92449   0.97196107 
   51400   0.90969814   -6.4366837    9.6963476  0.015720408  0.017316192            1    5.3935077    887.23183   0.97381538 
   51500   0.96079788   -6.4724756    9.7561127   0.01578659   0.01731096            5    5.0101818    890.29139   0.97046878 
   51600   0.95962858   -6.3449858    9.8015587  0.015829391  0.017307065            7     5.498352     892.8412   0.96769728 
   51700   0.94328041   -6.3855418    9.7949695  0.015788152  0.017303425            3    5.4397831    890.35859   0.97039554 
   51800   0.89014951   -6.3887348    9.7863036  0.015743732  0.017298401            6    5.6217091    885.63014   0.97557655 
   51900   0.96702455   -6.4543868    9.8214754   0.01576987  0.017293778            5    5.4248167    885.04741   0.97621889 
   52000   0.90642242   -6.4705163    9.8075199  0.015717179  0.017289546            6    5.8244512     876.9564   0.98522572 
   52100   0.92681829   -6.4145004    9.8384678  0.015736513  0.017285585            5    6.1451974    877.80398   0.98427442 
   52200   0.97148888   -6.4092804    9.9465518  0.015878914  0.017282163            2    5.7091469    885.45535   0.97576914 
   52300   0.91373163   -6.3057315    9.9879426  0.015914504  0.017280213            3    6.1903645    885.27708   0.97596563 
   52400   0.97050904   -6.3378369    9.9877486  0.015883824  0.017278552            3    6.1055456    885.02457   0.97624408 
   52500   0.94003686   -6.3447646    10.084952  0.016007861  0.017277235            2     5.691025    890.80706   0.96990699 
   52600   0.97086082    -6.357517    10.109758  0.016016726  0.017276425            3    5.6302018     890.2597   0.97050332 
   52700    0.9564422   -6.3400349    10.077185  0.015934827  0.017275261            1    5.8127987    888.17302   0.97278343 
   52800   0.92214286   -6.3073494     10.07101  0.015894902  0.017273467            2     6.002138    886.99275   0.97407786 
   52900   0.93735188   -6.4167676    10.101956  0.015913604  0.017271283            3    5.6502006    884.72534   0.97657426 
   53000   0.95190682   -6.3147872    10.160666  0.015975889  0.017269196            2    5.6117095    892.54775   0.96801543 
   53100   0.91937615   -6.3513654    10.209258  0.016022062  0.017267809            2    5.4553877    892.69697   0.96785363 
   53200   0.96492729   -6.4112777    10.190493  0.015962551  0.017266014            1    5.4544567      888.825   0.97206987 
   53300    0.9413921   -6.3854089    10.234262  0.016001036  0.017264077            3    5.3844879    890.84036   0.96987074 
   53400   0.95059855   -6.3216435    10.311879  0.016092195  0.017263154            2    5.4147599    896.14174   0.96413319 
   53500   0.99912893   -6.3329452    10.412371  0.016218646   0.01726365            5    5.0950316    901.87784   0.95800114 
   53600   0.96245075   -6.3870239    10.431962  0.016218846  0.017264844            2    5.1411355    895.71227   0.96459547 
   53700     0.914819   -6.4027038    10.491268  0.016280676   0.01726593            4    5.1230141    893.28088   0.96722097 
   53800   0.93075467   -6.3483513    10.514632  0.016286605  0.017267657            3    5.3337335    893.68878   0.96677951 
   53900   0.95111559    -6.304078    10.508643  0.016247129  0.017269498            2    5.5966561    894.43559   0.96597229 
   54000   0.94310636   -6.3833246    10.523132  0.016239401  0.017270985            4    5.3638949     891.9418   0.96867307 
   54100   0.92721108   -6.4068565    10.480159   0.01614319    0.0172716            9    5.4832125    888.51856   0.97240512 
   54200   0.89026178   -6.4200833    10.419759  0.016020539  0.017270282            4    5.5062496    886.45045   0.97467377 
   54300   0.96440877   -6.4461269    10.454434  0.016044251  0.017269281            2     5.236833    889.19105    0.9716697 
   54400   0.95163626    -6.386262    10.400442  0.015932049   0.01726733            3    5.6514444    887.46448    0.9735601 
   54500   0.94952874   -6.3521626    10.441708  0.015965914  0.017265302            5    5.6879637    889.50876   0.97132265 
   54600    0.9191123    -6.399366    10.478855  0.015993368  0.017263506            2     5.604672    886.46298   0.97465999 
   54700   0.96671949   -6.3739307    10.561592  0.016090176  0.017262496            8    5.4415845    891.59864   0.96904589 
   54800   0.93770301   -6.4369156    10.580011  0.016088824  0.017261474            2    4.9999093    892.50044   0.96806675 
   54900    0.9333391    -6.368173     10.60687  0.016100288  0.017260545            2     5.496212     890.5227    0.9702167 
   55000   0.96034681   -6.3131021    10.635847  0.016114919  0.017260377            2     5.682557    893.38536   0.96710785 
   55100   0.96447018   -6.3171158    10.583086  0.016005877  0.017259925            2    6.3050068    883.88611    0.9775015 
   55200   0.95387931   -6.3391277    10.680508  0.016123956  0.017260207            2    5.9318733    887.07067    0.9739923 
[...]
   89400      0.93574   -6.3339144    17.583249  0.016390053  0.017035999            5      5.48398    894.46984   0.96593531 
   89500   0.96555977   -6.3436362    17.522249  0.016314943  0.017035689            3    5.8340418    888.14987   0.97280879 
   89600   0.98881055   -6.3717327    17.457211  0.016236245  0.017035198            3    5.9528851     884.6014    0.9767111 
   89700   0.95343287   -6.4290061    17.433348  0.016195975  0.017034245            6    5.7698003    882.19099   0.97937976 
   89800   0.94463457   -6.3650729    17.462496  0.016204988  0.017033041            5    6.2068484    880.77929    0.9809495 
   89900   0.96276844   -6.3634172    17.515819  0.016236391  0.017032168            3    6.1702325    882.26505   0.97929755 
   90000    1.0547086   -6.3711104    17.478384  0.016183689  0.017031425            9    6.2913676    880.64349   0.98110077 
   90100   0.94564784   -6.3365656    17.471967  0.016159791  0.017030496            8    6.4158285    880.15599   0.98164418 
   90200    0.9683493   -6.3959305     17.53259  0.016197884  0.017029411            4    5.9086506    882.98968   0.97849388 
   90300   0.99738547   -6.3691469    17.644756  0.016283459  0.017028279            7    5.4915687     891.5701   0.96907692 
   90400   0.93748775    -6.339551     17.68737  0.016304729  0.017027596           11    5.5539045    892.51447   0.96805153 
   90500   0.94321381   -6.3804355    17.623217   0.01622764  0.017026304            9    5.4485131    890.13501   0.97063927 
   90600   0.91943321   -6.3593699    17.618445  0.016205339   0.01702491           11    5.7976414    886.10051   0.97505869 
   90700   0.92117088   -6.3496034    17.608453  0.016178292   0.01702347           12     5.898359    886.67014   0.97443227 
   90800   0.99290807   -6.3943047    17.673595   0.01622026  0.017022187            7    5.6004554    888.51816   0.97240557 
   90900   0.90605742   -6.3647481    17.639706  0.016171348  0.017020714            4    5.7541698    887.45088   0.97357501 
   91000    0.9169989   -6.3353571     17.65514  0.016167711  0.017018841            4    5.8581331    887.39858   0.97363239 
   91100   0.97092826    -6.336206    17.708472  0.016198749  0.017017559            3    5.9468909    887.64083   0.97336667 
   91200   0.95411583   -6.3236361    17.718343  0.016190006  0.017016587            4    6.1495082    884.73004   0.97656908 
   91300   0.97794784   -6.3276281    17.779172  0.016227795  0.017015493            5    5.9155826    888.16661   0.97279046 
   91400    0.9319464   -6.2929244    17.875714  0.016298062  0.017014805            9    5.8630574    890.96995   0.96972967 
   91500   0.96421007    -6.371237    17.826499  0.016235427   0.01701395           10    5.7190868     887.4161   0.97361317 
   91600   0.92465032   -6.3318026    17.816384  0.016208501  0.017012843            8    5.9905114    885.25485   0.97599013 
   91700   0.94515307    -6.330361    17.850797  0.016222098  0.017011682            4    5.9116146    887.81215   0.97317884 
   91800   0.97232392   -6.3440328    17.797216  0.016155788  0.017010363            4    5.9460702    886.56631   0.97454639 
   91900   0.93167975   -6.3588935    17.752266  0.016097448  0.017008517            2    6.0762193    882.37091   0.97918006 
   92000    0.9825637   -6.3966716    17.919803  0.016231706  0.017006942            6    5.5321146     889.4005   0.97144088 
   92100   0.92479669   -6.3138858    17.951211    0.0162425  0.017005853            2    5.8697009    889.99307   0.97079408 
   92200   0.98516303   -6.4352416    17.975478  0.016246816   0.01700469            2    5.3022371    889.46159   0.97137416 
   92300    0.9325753   -6.4371521    17.947936  0.016204348  0.017003152            2    5.2597219    888.54224    0.9723792 
   92400   0.96299538   -6.4246257    18.036678  0.016266845  0.017001591            3    5.1627645    891.96724   0.96864544 
   92500   0.98374272   -6.4085711    18.121254  0.016325454  0.017000713            3    5.1713126    893.86468   0.96658926 
   92600   0.88136743     -6.35403    18.116482   0.01630353  0.016999756            8    5.5310414    890.49517    0.9702467 
   92700   0.96308644   -6.3677418    18.174642  0.016338226  0.016998915            3    5.4075906    892.46266   0.96810773 
   92800   0.94628267   -6.3184446    18.208517  0.016351039  0.016998478            3    5.6225068    893.86923   0.96658434 
   92900   0.93338621   -6.3126465    18.240871  0.016362461  0.016998033            2    5.5126276    895.61941   0.96469549 
   93000   0.92112557   -6.3686983    18.130525   0.01624599  0.016997101            5    5.4089976    891.86715   0.96875415 
   93100   0.89377598   -6.3546991    18.081603   0.01618475  0.016995441            5    5.7668379     887.3138   0.97372541 
   93200   0.97343756   -6.3598483    18.074035  0.016160618  0.016994063            2    6.0381734    884.58357   0.97673078 
   93300   0.97261614   -6.3496119     18.18401  0.016241524  0.016993018            2    5.9606012    886.23647   0.97490911 
   93400    1.0001304    -6.264672    18.338096  0.016361613  0.016992539            3    6.0825067    891.58692   0.96905864 
   93500   0.97475623   -6.2749288    18.433057   0.01642875   0.01699301            4    5.8060221    894.75985   0.96562222 
   93600   0.96516486   -6.2839927    18.437992  0.016415591  0.016993379            3    5.7941824    893.56398   0.96691454 
   93700   0.96920386   -6.3771859    18.370803  0.016338316  0.016993444            3    5.5344752    890.09076   0.97068753 
   93800    0.9482627   -6.3347794    18.282561  0.016242502  0.016992801            7    6.2234988    882.78566   0.97872003 
   93900   0.90528872   -6.3101452    18.356224  0.016290578  0.016992038            2    6.0486229    887.13587   0.97392071 
   94000   0.95845872   -6.3029362    18.384289  0.016298129  0.016991488            2      5.83888    890.77641   0.96994036 
   94100    0.9143593   -6.3693224    18.317394  0.016221568  0.016990649            7    5.5864522    889.68784   0.97112713 
   94200   0.91849778   -6.3632135    18.323281  0.016209555   0.01698907            2      5.74791    886.91325   0.97416517 
   94300   0.95838927    -6.338288    18.378768  0.016241399  0.016987811            3    5.7478863    889.65711   0.97116068 
   94400   0.92416689   -6.3372849    18.384403   0.01622917  0.016986786            3    5.9659674    886.32605   0.97481056 
   94500   0.94002519   -6.3603084    18.338594  0.016171599  0.016985468            3    6.0261917    883.71551    0.9776902 
   94600   0.98066449   -6.3137686    18.432378  0.016237119  0.016984377            4    5.9739027    888.52687   0.97239603 
   94700   0.96664764   -6.3103534    18.490794  0.016271378  0.016983841            3    6.3504395    883.58903   0.97783016 
   94800   0.97578793   -6.3701525    18.522208  0.016281829  0.016983444            4    5.8831021    885.05668   0.97620866 
   94900   0.91429921   -6.4321229     18.57092  0.016307446  0.016982897            5    5.4242724    886.64798   0.97445663 
   95000   0.90122082   -6.3576826    18.551376  0.016273137  0.016982073            5    5.9244288     884.6406   0.97666781 
   95100   0.95981923   -6.3548492    18.603562  0.016301755  0.016981445            3    5.7622952     888.3124    0.9726308 
   95200   0.99221032   -6.3862337    18.680421  0.016351909  0.016981076            2    5.4465208    891.20234    0.9694768 
   95300   0.92422669   -6.3948439    18.662888   0.01631942  0.016980434            3     5.482075    888.98127   0.97189899 
   95400   0.97115713   -6.4009703    18.658861  0.016298795    0.0169797            4    5.4865617    889.49774   0.97133468 
   95500   0.98097166    -6.342036    18.760703  0.016370596  0.016979212            6    5.5771237    892.84945   0.96768833 
   95600    0.9633789   -6.3801087    18.819484   0.01640471  0.016979046            4    5.5043213    890.69732   0.97002649 
   95700   0.93457783   -6.3906383    18.797432  0.016368366  0.016978788            3    5.6788366    886.38665   0.97474392 
   95800   0.92711953   -6.4010484    18.804352    0.0163573  0.016978454            5    5.6133696    887.18749   0.97386405 
   95900   0.97798012    -6.359282     18.77809  0.016317423  0.016978071            2    5.8664875    887.11233   0.97394656 
   96000   0.98725583   -6.3860506    18.708872   0.01624034  0.016977714            5    6.1637318    879.91697   0.98191082 
   96100   0.92713801   -6.3762468     18.77947   0.01628466  0.016977095            3    5.9494233    883.36046   0.97808317 
   96200   0.98072836   -6.4137586    18.909495  0.016380367  0.016976687            6    5.3004222    891.36835   0.96929625 
   96300   0.99397984   -6.4001553    18.902547  0.016357344  0.016976325            3    5.3025519    891.84913   0.96877373 
   96400   0.91492318   -6.3742174    18.914883  0.016351039  0.016975849            4    5.5362268    889.32635   0.97152187 
   96500   0.91891291   -6.3354168    18.967168  0.016379247  0.016975459            3    5.8955556    887.44082   0.97358605 
   96600   0.96839091   -6.3805737    18.952052  0.016349252  0.016975196            6     5.752313     886.6812   0.97442012 
   96700   0.95881214   -6.4219682     18.93428  0.016317028  0.016974793            6    5.6320471    884.74663   0.97655077 
   96800   0.94181875   -6.4613446    18.901042  0.016271558  0.016974056           15    5.4578797    884.57474   0.97674053 
   96900   0.95301156   -6.3988963     19.02176  0.016358583  0.016973348            1    5.6345158     886.7973   0.97429255 
   97000   0.94311955   -6.3796845     19.08022  0.016391941  0.016973157            2     5.540641    889.65461    0.9711634 
   97100   0.96926146   -6.3420667    19.179115  0.016459934  0.016973138            6    5.4112238    896.03495   0.96424811 
   97200    0.9740945   -6.3389857    19.111449  0.016384987  0.016973157            1    5.5761985    892.88865   0.96764586 
   97300   0.96331068   -6.3566107    19.045425  0.016311601  0.016972887            2    5.8175932    887.61376   0.97339635 
   97400   0.94608129    -6.361438    19.013822  0.016267814  0.016972149            3    5.8865221    885.79621   0.97539365 
   97500   0.95349725   -6.3447038    19.209068  0.016418007    0.0169717            2    5.4883782     894.0388   0.96640101 
   97600   0.90846914   -6.3771544    19.206406  0.016398912  0.016971544            2    5.7198534    886.75837   0.97433532 
   97700   0.91823143   -6.3514153    19.235362  0.016406825  0.016971229            2    5.7823015     887.4584   0.97356676 
   97800   0.98848639   -6.4040782    19.375967  0.016509856  0.016971442            2    5.0939553    896.31618   0.96394556 
   97900   0.92180704   -6.3803437    19.281195  0.016412321  0.016971584            1    5.5517296    889.77124   0.97103611 
   98000    0.9400762   -6.4900615    19.235675  0.016356867  0.016971172            3    5.3486354    884.73178   0.97656715 
   98100     0.940747   -6.4093875    19.253245  0.016355118  0.016970763            3    5.9091124    881.62938   0.98000364 
   98200    0.8983788   -6.3274718    19.308583  0.016385423  0.016970544            2    5.9277459    887.13658   0.97391993 
   98300   0.91627896   -6.3283026    19.339614  0.016395061  0.016970291            1    5.8624711    888.64371   0.97226818 
   98400   0.96650262   -6.3648722    19.351587  0.016388539  0.016970309            1    5.8560161    886.12939   0.97502691 
   98500    1.0004458    -6.391268     19.33209  0.016355406  0.016970223            2    5.7360527    886.49363   0.97462629 
   98600   0.92013472   -6.3101594    19.417909  0.016411349  0.016970325            6     5.983336    887.05821   0.97400598 
   98700     0.967042   -6.3010413    19.424989    0.0164007  0.016970473            3    6.2029794    885.98929   0.97518109 
   98800   0.96640367   -6.4159158    19.462295  0.016415566  0.016970682            2    5.7462672    884.60963   0.97670201 
   98900   0.95846825   -6.3383511    19.443661  0.016383266  0.016970678            7    6.1036023    884.83991   0.97644782 
   99000   0.96053275   -6.3407542     19.54626  0.016453081  0.016971098            3    5.9136542    887.57385   0.97344013 
   99100   0.93606802   -6.3613054    19.523038  0.016416951    0.0169714            6     5.902998    885.23506   0.97601195 
   99200    1.0172502   -6.4045069    19.477502  0.016362149  0.016971412            5    5.9992688    881.24808   0.98042766 
   99300   0.91253506   -6.3308035     19.51521  0.016377316  0.016971516            3    6.4048756    880.17648   0.98162133 
   99400    1.0012376   -6.3486514    19.558439  0.016397082  0.016971882            6    6.3133722    881.42431   0.98023164 
   99500   0.96742869   -6.3156886    19.574794    0.0163943  0.016972376            6    6.3333087    882.87066   0.97862579 
   99600   0.97243383   -6.4342854    19.580127  0.016382302  0.016972521           10    5.5173386    885.93321   0.97524282 
   99700   0.90750672    -6.397217    19.527032  0.016321491  0.016971959            4    5.8456548    882.77898   0.97872742 
   99800   0.96676742   -6.4249455     19.60031  0.016366324  0.016971449           11    5.3305939    889.08781   0.97178253 
   99900    0.9624894   -6.4546498    19.697357  0.016430895  0.016971211            2    5.2100646     889.8654   0.97093336 
  100000   0.91922391   -6.4212381    19.576107  0.016313423  0.016970718            3    5.7665235    882.84349   0.97865591 
  100100     0.900057   -6.4452687    19.493762  0.016228573  0.016969649            5    5.8168994    878.89254   0.98305533 
  100200   0.92392225   -6.3602901    19.598456  0.016299448  0.016968746           13    5.8500497    886.25069   0.97489346 
  100300   0.92837307   -6.3456725    19.655064   0.01633023  0.016967929            3     5.505717     892.6207   0.96793633 
  100400   0.94521998   -6.3557627    19.674341  0.016329964  0.016967025            5    5.3055627    894.35222   0.96606234 
  100500   0.91283974   -6.3942171     19.64015  0.016285365  0.016965928            7    5.5191707    888.46498   0.97246377 
  100600   0.92479036   -6.3841848    19.695603  0.016315112  0.016964902            4    5.5524677    888.64716    0.9722644 
  100700   0.98303892   -6.3572779    19.702338  0.016304484  0.016963933            3    5.5523911    891.53747   0.96911238 
  100800   0.94424179   -6.4115784    19.652167  0.016246831  0.016963087            2    5.5383902    887.48192   0.97354096 
  100900   0.96379432   -6.4265714    19.634586  0.016216209  0.016961656            1    5.5746328    885.81382   0.97537426 
  101000   0.93382491   -6.2947934    19.743368  0.016289907  0.016960542            1    5.9323588    889.54316   0.97128508 
  101100   0.97905182   -6.3300054    19.703559  0.016240981  0.016959749            2    5.9782598    887.70982   0.97329103 
  101200   0.94316829    -6.350971    19.739128  0.016254223  0.016958923            7    5.9643948    884.87536    0.9764087 
  101300   0.95202346    -6.387547    19.824959  0.016308785  0.016958159            4    5.6725732    886.44714    0.9746774 
  101400   0.96334269   -6.3482774     19.90792  0.016360881  0.016957665            3    5.5996204    891.45657   0.96920032 
  101500   0.92426703   -6.2798636    19.983374  0.016406711  0.016957315            7    5.7593892    893.76998   0.96669167 
  101600   0.97596496   -6.3696967    19.965678  0.016376048  0.016957068            2    5.4926343    891.54637    0.9691027 
  101700   0.94170087   -6.4201428    19.864763  0.016277255  0.016956277            4    5.5243001    886.88264   0.97419879 
  101800   0.96813284   -6.3925958    19.891275  0.016282969  0.016955658            4    5.8562781    884.73763    0.9765607 
  101900   0.93447768   -6.3738683    19.949072  0.016314256  0.016955108            9    6.0675086     882.1559   0.97941872 
  102000   0.97632565   -6.3748209    19.860394  0.016225812  0.016954491            6    6.3221576    878.90272   0.98304395 
  102100    1.0103986    -6.353534    20.007272  0.016329801  0.016954106            6    5.8529261    888.36955   0.97256823 
  102200   0.95450165   -6.3445167    20.080192  0.016373281  0.016953869            6    5.7104434    889.05787   0.97181526 
  102300   0.95817659   -6.3727944    20.103649  0.016376384  0.016953817            3    5.7632367     885.9041   0.97527486 
  102400   0.92121815   -6.3862483    20.028928  0.016299583  0.016953386            3    6.0722642    880.51356   0.98124554 
  102500   0.96053089   -6.3446989    20.132468   0.01636786  0.016953074            2    5.9445854    886.86554   0.97421758 
  102600    1.0053404   -6.3660828    20.199065  0.016405998  0.016953108            2    5.7564658    888.30378   0.97264024 
  102700    0.9234715   -6.3575122    20.179529  0.016374172  0.016953019            1    5.8513621    886.44556   0.97467914 
  102800   0.98787311   -6.3912282    20.229647   0.01639887  0.016952927            2    5.6192519    888.45762   0.97247183 
  102900   0.95300803   -6.3389591    20.270253  0.016415819  0.016953057            2    6.0166137    884.59668    0.9767163 
  103000   0.94346817   -6.3572348    20.283096  0.016410272  0.016953222            2    6.0480727    884.15708   0.97720192 
  103100   0.98033704   -6.3140461    20.507633  0.016575843  0.016953768            3     5.614809    894.52181   0.96587919 
  103200   0.90883648   -6.2684517    20.571404  0.016611276  0.016954761            3     5.785596    894.70856   0.96567758 
  103300   0.93281961   -6.3538369    20.559473   0.01658557  0.016955575            3    5.2833617    896.18515    0.9640865 
  103400    0.9645554   -6.4190725    20.532685  0.016547941  0.016956078            5     5.267852    891.24226   0.96943338 
  103500   0.92984744   -6.4186003    20.496585  0.016502887  0.016956521            9    5.5400577     886.7563    0.9743376 
  103600   0.98049991   -6.4188076    20.552578  0.016531996  0.016957026           10    5.6835618    884.97868    0.9762947 
  103700   0.91573731   -6.3799047    20.690803  0.016627132  0.016957894           12      5.44674    890.46357   0.97028113 
  103800   0.96323399   -6.4461172    20.615941  0.016551012  0.016958477            2    5.0820562    891.13149   0.96955389 
  103900   0.93746183   -6.4118394    20.607741  0.016528505  0.016958821            4    5.3904966    888.97292   0.97190812 
  104000   0.92826742    -6.327827    20.655509  0.016550889  0.016959266            2     5.541498    893.15875   0.96735322 
Loop time of 189.215 on 12 procs for 100000 steps with 864 atoms

Performance: 91324.784 tau/day, 528.500 timesteps/s
99.4% CPU use with 12 MPI tasks x no OpenMP threads

MPI task timing breakdown:
Section |  min time  |  avg time  |  max time  |%varavg| %total
---------------------------------------------------------------
Pair    | 9.3565     | 10.096     | 11.005     |  14.7 |  5.34
Neigh   | 0.97996    | 1.0178     | 1.0676     |   2.4 |  0.54
Comm    | 6.9491     | 8.1751     | 9.0704     |  20.2 |  4.32
Output  | 1.9012     | 1.9022     | 1.9097     |   0.2 |  1.01
Modify  | 166.02     | 166.34     | 166.87     |   2.1 | 87.91
Other   |            | 1.68       |            |       |  0.89

Nlocal:        72.0000 ave          79 max          69 min
Histogram: 2 2 3 1 1 1 1 0 0 1
Nghost:        1533.17 ave        1551 max        1517 min
Histogram: 2 0 1 2 2 2 0 0 1 2
Neighs:        7963.25 ave        8543 max        7136 min
Histogram: 2 0 0 1 1 2 2 0 1 3
FullNghs:      15926.8 ave       17534 max       15144 min
Histogram: 2 2 3 1 1 2 0 0 0 1

Total # of neighbors = 191122
Ave neighs/atom = 221.20602
Neighbor list builds = 5418
Dangerous builds = 0

#clear
#
#next RN
#
#jump SELF



Total wall time: 0:03:09
