
units lj                  # Use reduced LJ style units
atom_style atomic         # Uncharged point particles
atom_modify map hash      # Needed for indexing of clusters etc
                          # Used to be able to find where atoms are in relation to each other.

# Define a lattice with which to populate the simulation cell. With units
# set to 'lj' the second argument to the lattice command is the reduced
# density rho* and the spacings are multiples of that required to acheive
# that density. Also define a simulation cell called 'box' in lattice units
# and fill it with atoms. Here we're creating a box which is ten lattice
# constants in each direction.
lattice fcc 1.0 spacing 1 1 1                 # All equal sizes - gives the right reduced density.
Lattice spacing in x,y,z = 1.5874011 1.5874011 1.5874011

region box block 0 6 0 6 0 6 units lattice # Defines a region, "box", in lattice units
create_box 1 box                              # Creates a simulation box as specified above,
Created orthogonal box = (0.0000000 0.0000000 0.0000000) to (9.5244063 9.5244063 9.5244063)
  2 by 2 by 3 MPI processor grid
                                              # with one type of atom
create_atoms 1 box                            # Creates particles on lattice points
Created 864 atoms
  using lattice units in orthogonal box = (0.0000000 0.0000000 0.0000000) to (9.5244063 9.5244063 9.5244063)
  create_atoms CPU = 0.001 seconds


# Set the mass of the first (and only) atom type.
mass 1 1.0

# Lennard-Jones interactions between particles, 3.5 sigma cut-off. Apply
# long range tail corrections to energy and pressure and set all coefficients
# to unity since we work in reduced units here. Note that this doesn't shift
# the potential such that it goes to zero at the cutoff. That would require
# pair_modify('shift', 'yes').
pair_style lj/cut  3.5      # non-GPU version
pair_modify tail  yes
pair_coeff 1  1  1.0  1.0   # Intearaction between 1 and 1 set with epsilon = 1 and sigma = 1

write_data data.*
System init for write_data ...
Neighbor list info ...
  update every 1 steps, delay 10 steps, check yes
  max neighbors/atom: 2000, page size: 100000
  master list distance cutoff = 3.8
  ghost atom cutoff = 3.8
  binsize = 1.9, bins = 6 6 6
  1 neighbor lists, perpetual/occasional/extra = 1 0 0
  (1) pair lj/cut, perpetual
      attributes: half, newton on
      pair build: half/bin/atomonly/newton
      stencil: half/bin/3d
      bin: standard

#############################
#   M E L T   S Y S T E M   #
#############################

velocity all create 2.4 2750902 mom yes dist gaussian # Assign velocities
                                                    # Temperature 2.4, random number seed, zero linear momentum
						                                                        # Gaussian distribution

timestep 0.002   # simulation timestep
thermo 100       # output thermodynamic data every 100 steps

# Define a fix  in this case with index 1 applied to all
# particles in the simulation. This fix is for simulations
# in the anisotropic NPT ensemble. Note that we use the MTK
# correction.
fix 1 all npt temp 2.4 2.4 0.1 iso 5.68 5.68 0.5 mtk yes tchain 5 pchain 5 # Use NPT ensemble
                                                                         # Set temperature and pressure and damping
                                                                         # Numbers of thermostats in chain and in barostat
run 1000         # run for 10000 steps
Per MPI rank memory allocation (min/avg/max) = 3.633 | 3.633 | 3.634 Mbytes
Step Temp E_pair E_mol TotEng Press Volume 
       0          2.4   -8.3859253            0    -4.790092     -2.24275          864 
     100    1.3007594   -6.4407842            0   -4.4919034    5.3582762    891.69205 
     200    1.5828213   -6.0796178            0   -3.7081338    6.4338598    907.46239 
     300    1.7629056     -5.73851            0   -3.0972122    5.5953229    954.02439 
     400    1.8733232   -5.2785237            0   -2.4717912    6.0585808    994.36537 
     500      2.02574   -4.9360708            0   -1.9009777    5.7478153    1042.8978 
     600    2.2112838   -4.6895875            0   -1.3765009    5.7138268    1079.0368 
     700    2.3146746   -4.4629638            0  -0.99497044    5.6088298    1118.0222 
     800    2.4734008     -4.39503            0   -0.6892229    5.7937797    1123.7282 
     900    2.4206618   -4.2767239            0  -0.64993368    5.5531987    1146.9555 
    1000    2.3618098   -4.2459295            0  -0.70731524    5.7000582    1143.3852 
Loop time of 0.188452 on 12 procs for 1000 steps with 864 atoms

Performance: 916942.800 tau/day, 5306.382 timesteps/s
99.7% CPU use with 12 MPI tasks x no OpenMP threads

MPI task timing breakdown:
Section |  min time  |  avg time  |  max time  |%varavg| %total
---------------------------------------------------------------
Pair    | 0.067741   | 0.077576   | 0.10617    |   4.3 | 41.16
Neigh   | 0.012161   | 0.013068   | 0.016311   |   1.3 |  6.93
Comm    | 0.04916    | 0.080733   | 0.091122   |   4.7 | 42.84
Output  | 0.00018668 | 0.00019443 | 0.0002482  |   0.0 |  0.10
Modify  | 0.014566   | 0.015333   | 0.015922   |   0.3 |  8.14
Other   |            | 0.001549   |            |       |  0.82

Nlocal:        72.0000 ave          80 max          66 min
Histogram: 2 1 2 2 1 0 2 0 0 2
Nghost:        1314.75 ave        1327 max        1295 min
Histogram: 1 0 0 2 3 0 0 1 2 3
Neighs:        6211.67 ave        7136 max        5326 min
Histogram: 2 0 0 2 1 4 1 0 0 2

Total # of neighbors = 74540
Ave neighs/atom = 86.273148
Neighbor list builds = 80
Dangerous builds = 2

# Equilibrate just above the melting temperature to avoid step fn in T

fix 1 all npt temp 1.25 1.25 0.1 iso 5.68 5.68 0.5 mtk yes tchain 5 pchain 5
run 1000
Per MPI rank memory allocation (min/avg/max) = 3.634 | 3.634 | 3.634 Mbytes
Step Temp E_pair E_mol TotEng Press Volume 
    1000    2.3618098   -4.2459295            0  -0.70731524    5.7000582    1143.3852 
    1100    1.8617945   -4.5967525            0    -1.807293    5.9593679    1083.5566 
    1200      1.66126   -5.0091582            0   -2.5201524    5.9308167    1028.0056 
    1300    1.4533368   -5.3154554            0   -3.1379734    5.5185254    997.93023 
    1400    1.3100587   -5.5224566            0    -3.559643    5.2858775     978.0358 
    1500    1.3306301   -5.7450087            0   -3.7513736    5.2687861    956.68836 
    1600    1.2302857    -5.777427            0   -3.9341343     5.385203    950.58576 
    1700    1.2545134   -5.8251615            0   -3.9455694    5.6370291    940.07281 
    1800    1.2669685   -5.8434457            0   -3.9451925    6.1076728    931.13358 
    1900    1.2975362   -5.8185374            0   -3.8744858    5.5765884    942.23221 
    2000    1.2225624   -5.8503078            0   -4.0185867    5.1330896    948.19804 
Loop time of 0.162153 on 12 procs for 1000 steps with 864 atoms

Performance: 1065661.807 tau/day, 6167.024 timesteps/s
99.8% CPU use with 12 MPI tasks x no OpenMP threads

MPI task timing breakdown:
Section |  min time  |  avg time  |  max time  |%varavg| %total
---------------------------------------------------------------
Pair    | 0.070764   | 0.076194   | 0.079314   |   1.1 | 46.99
Neigh   | 0.0099635  | 0.010511   | 0.010933   |   0.2 |  6.48
Comm    | 0.055163   | 0.058746   | 0.064837   |   1.4 | 36.23
Output  | 0.00018693 | 0.00019408 | 0.000244   |   0.0 |  0.12
Modify  | 0.014169   | 0.01466    | 0.015089   |   0.2 |  9.04
Other   |            | 0.001848   |            |       |  1.14

Nlocal:        72.0000 ave          79 max          65 min
Histogram: 1 1 0 4 0 1 1 3 0 1
Nghost:        1466.08 ave        1476 max        1447 min
Histogram: 1 1 0 0 2 0 0 4 1 3
Neighs:        7466.67 ave        8131 max        6694 min
Histogram: 1 0 2 0 3 1 3 0 0 2

Total # of neighbors = 89600
Ave neighs/atom = 103.70370
Neighbor list builds = 67
Dangerous builds = 0


# Small amount of linear quench

fix 1 all npt temp 1.25 ${temp} 0.1 iso 5.68 5.68 0.5 mtk yes tchain 5 pchain 5
fix 1 all npt temp 1.25 0.55 0.1 iso 5.68 5.68 0.5 mtk yes tchain 5 pchain 5
run 2000
Per MPI rank memory allocation (min/avg/max) = 3.634 | 3.634 | 3.634 Mbytes
Step Temp E_pair E_mol TotEng Press Volume 
    2000    1.2225624   -5.8503078            0   -4.0185867    5.1330896    948.19804 
    2100    1.2337322   -5.8716465            0   -4.0231902    5.3863289    940.78298 
    2200    1.2036595   -5.9236945            0   -4.1202949    5.7137647     929.1658 
    2300    1.1744362   -5.9394232            0   -4.1798078    6.3237417    917.11882 
    2400    1.1505218   -6.0020502            0    -4.278265    5.8488725    919.58416 
    2500    1.0658306   -6.0294006            0   -4.4325051    5.9661978    912.95433 
    2600    1.0537438   -6.1142139            0   -4.5354277    5.7310336    909.70165 
    2700     1.061534   -6.2132889            0   -4.6228308    5.4425179    906.95917 
    2800   0.97090907   -6.2021844            0   -4.7475064    5.7626985     901.4528 
    2900   0.95208305   -6.2713516            0   -4.8448799    5.7290802     895.0434 
    3000   0.90014318   -6.2934387            0   -4.9447867    5.6857384     894.1272 
    3100   0.89400891   -6.3827954            0   -5.0433341    5.3742386    892.37398 
    3200   0.84140299   -6.4324826            0   -5.1718389    5.2698665    888.90938 
    3300    0.8334494   -6.5126393            0   -5.2639122    5.5528292    878.25855 
    3400   0.80911354   -6.5542738            0   -5.3420082    5.9682916    868.46767 
    3500   0.80945391   -6.6718899            0   -5.4591143    6.0003406    859.18074 
    3600   0.71373184   -6.6654376            0    -5.596079    6.0860239    857.09037 
    3700   0.69943301   -6.7731567            0   -5.7252214    5.7227966    854.07313 
    3800   0.67766516   -6.8502352            0   -5.8349139    5.6387863    849.44615 
    3900   0.60184255   -6.8547764            0   -5.9530574    5.6930455     847.6007 
    4000   0.58997404   -6.9506141            0   -6.0666773     5.524401    842.46747 
Loop time of 0.337005 on 12 procs for 2000 steps with 864 atoms

Performance: 1025504.354 tau/day, 5934.632 timesteps/s
99.8% CPU use with 12 MPI tasks x no OpenMP threads

MPI task timing breakdown:
Section |  min time  |  avg time  |  max time  |%varavg| %total
---------------------------------------------------------------
Pair    | 0.15918    | 0.1715     | 0.18652    |   2.0 | 50.89
Neigh   | 0.017347   | 0.017849   | 0.019272   |   0.5 |  5.30
Comm    | 0.098622   | 0.11486    | 0.12765    |   2.6 | 34.08
Output  | 0.000373   | 0.00038489 | 0.00047525 |   0.0 |  0.11
Modify  | 0.027315   | 0.028017   | 0.028669   |   0.2 |  8.31
Other   |            | 0.00439    |            |       |  1.30

Nlocal:        72.0000 ave          78 max          66 min
Histogram: 1 1 0 1 2 2 4 0 0 1
Nghost:        1608.50 ave        1632 max        1579 min
Histogram: 1 0 1 1 1 1 4 2 0 1
Neighs:        8504.67 ave        9255 max        7226 min
Histogram: 1 0 0 2 1 0 2 3 0 3

Total # of neighbors = 102056
Ave neighs/atom = 118.12037
Neighbor list builds = 105
Dangerous builds = 0

#############################
# F R E E Z E  S Y S T E M  #
#############################

# Define solid atoms. This closely follows ten Wolde  Ruiz-Montero and Frenkel  Faraday Discuss  1996  104  93-110
# Compute components of the per-atom q6 vector
compute q6 all orientorder/atom degrees 1 6 components 6 nnn NULL cutoff 1.3 # compute the Q6 parameter.
                                                                             # Use all neighbours within 1.3 unit cell.

# get number of connections
compute coord_number all coord/atom orientorder q6 0.5

# An atom is solid if it has 8 or more connections (of a possible 14)
variable is_solid atom c_coord_number>=8
group solid dynamic all var is_solid    # Must be dynamic to update
dynamic group solid defined

# do clustering
compute cluster solid cluster/atom 1.3 # Create a cluster where all atoms within are solid and max 1.3 units from another member

# define chunks one chunk per cluster
compute clus_chunks solid chunk/atom c_cluster nchunk every compress yes  # Says which atoms are in which chunk

# count the size of each chunk
compute size_chunks solid property/chunk clus_chunks count


# Find the maximum entry in the vector of chunk sizes
variable max_n equal max(c_size_chunks)


# Thermo style which includes this variable
# thermo_style custom step temp pe vol v_max_n

thermo ${N}  # Print the thermo information every 100 steps
thermo 100  

# Reset the npt fix at a lower temperature (below freezing)

compute myRDF all rdf 100
fix 2 all ave/time 1 50 100 c_myRDF[*] file pcf.rdf mode vector


compute msd all msd com yes
variable twopoint equal c_msd[4]/6/(step*dt+1.0e-6)
fix 9 all vector 10 c_msd[4]
variable fit equal slope(f_9)/6/(10*dt)
thermo_style custom step temp pe c_msd[4] v_twopoint v_fit v_max_n press vol density


fix 1  all npt temp  ${temp} ${temp}  0.1  iso  5.68  5.68  0.5  mtk yes tchain  5  pchain  5
fix 1  all npt temp  0.55 ${temp}  0.1  iso  5.68  5.68  0.5  mtk yes tchain  5  pchain  5
fix 1  all npt temp  0.55 0.55  0.1  iso  5.68  5.68  0.5  mtk yes tchain  5  pchain  5

dump dmp2 all dcd ${N} traj.dcd
dump dmp2 all dcd 100 traj.dcd
dump dmp3 all dcd ${N} traj_unwrap.dcd
dump dmp3 all dcd 100 traj_unwrap.dcd
dump_modify dmp3 unwrap yes


# fix rnuntil all halt ${N} v_max_n >= 3980 error soft message no   # Stop when solidified

run 100000 # 5000000  # Run for this many steps
Neighbor list info ...
  update every 1 steps, delay 10 steps, check yes
  max neighbors/atom: 2000, page size: 100000
  master list distance cutoff = 3.8
  ghost atom cutoff = 3.8
  binsize = 1.9, bins = 5 5 5
  5 neighbor lists, perpetual/occasional/extra = 1 4 0
  (1) pair lj/cut, perpetual
      attributes: half, newton on
      pair build: half/bin/atomonly/newton
      stencil: half/bin/3d
      bin: standard
  (2) compute orientorder/atom, occasional
      attributes: full, newton on
      pair build: full/bin/atomonly
      stencil: full/bin/3d
      bin: standard
  (3) compute coord/atom, occasional
      attributes: full, newton on
      pair build: full/bin/atomonly
      stencil: full/bin/3d
      bin: standard
  (4) compute cluster/atom, occasional
      attributes: full, newton on
      pair build: full/bin/atomonly
      stencil: full/bin/3d
      bin: standard
  (5) compute rdf, occasional, copy from (1)
      attributes: half, newton on
      pair build: copy
      stencil: none
      bin: none
Per MPI rank memory allocation (min/avg/max) = 9.704 | 9.710 | 9.712 Mbytes
Step Temp PotEng c_msd[4] v_twopoint v_fit v_max_n Press Volume Density 
    4000   0.58997404   -6.9506141 7.9251304e-31 1.6510686e-32 8.3333333e+20           14     5.524401    842.46747    1.0255589 
    4100   0.54395628   -6.9511109  0.024611812 0.00050024002  0.022520215           12    5.8125915    837.92931    1.0311132 
    4200   0.53395204    -6.989432   0.03652362 0.0007246749  0.015946227            7    5.4837416    839.93242    1.0286542 
    4300   0.54488029   -6.9807268  0.045579205 0.00088331783  0.012084036            7     6.156577    832.15083    1.0382733 
    4400   0.55541384   -7.0644432  0.056502891 0.0010701304  0.010692565           18    4.7770447    843.45008    1.0243641 
    4500   0.56949678   -6.9850884  0.065975876 0.0012217754  0.010026823           17    5.8802157    835.64155    1.0339361 
    4600   0.56736295   -7.0464254  0.069292388 0.0012552968 0.0091239676           17      5.53214    835.83016    1.0337028 
    4700   0.55667268   -7.0383826  0.074034606 0.0013126702 0.0081521916           14    5.7185653    833.77151    1.0362551 
    4800   0.52383069   -7.0569228  0.079647025 0.0013827607 0.0074695554           11    5.4843094    834.58708    1.0352425 
    4900    0.5453417   -7.0028635  0.082615615 0.0014050273 0.0068435577           15    5.8634579    833.76807    1.0362594 
    5000   0.55152527   -7.0521301  0.087462347 0.0014577056   0.00637452           10    5.4210797    836.36969     1.033036 
    5100   0.53158013   -7.0442114  0.094039722 0.0015365966 0.0060344491           12    5.5137224    835.87473    1.0336477 
    5200   0.56784925    -7.056309  0.094624724 0.0015164217 0.0057198377            8    5.5703892    834.39588    1.0354797 
    5300   0.55485416   -7.0350302  0.094722881 0.0014893533  0.005340629           23     5.973428     830.3706    1.0404993 
    5400   0.54506455   -7.0439028   0.10221151  0.001577338 0.0050463704           15    5.4843172    836.13161    1.0333301 
    5500   0.53414695   -7.0531027   0.11013767 0.0016687524 0.0048943048           20    5.7872438    831.74112    1.0387848 
    5600   0.53800968   -7.0485023   0.11311398 0.0016832436 0.0047870418           23    5.6456877    833.38472    1.0367361 
    5700   0.54832346   -7.0678524   0.11457806 0.0016751177 0.0046508108           17    5.3211147    836.78884    1.0325185 
    5800    0.5447097   -7.0735819   0.11265388 0.0016185901 0.0044720976           20    5.8866795    829.07311    1.0421276 
    5900   0.55414031    -7.038083     0.111434 0.0015739265 0.0042506959           18    5.6148911     834.7314    1.0350635 
    6000   0.55515283   -7.0554648   0.11534077  0.001601955 0.0040418213           14    5.5951322    833.78774     1.036235 
    6100   0.54936649   -7.0848611   0.12264867 0.0016755281 0.0039050105           17    5.4219093    833.79675    1.0362238 
    6200   0.55972266    -7.029991   0.12440355 0.0016720905 0.0038011722           14    6.2252689    827.93556    1.0435595 
    6300    0.5402431   -7.0979119   0.12301077 0.0016271264 0.0036757324           14     5.151526    836.26208    1.0331689 
    6400   0.52237311   -7.0816241   0.12550966 0.0016342402 0.0035422953           22    5.8135196    829.17088    1.0420048 
    6500   0.56595159   -7.0671638    0.1300669 0.0016675242 0.0034406203           26    5.5818088    833.47285    1.0366265 
    6600   0.55069881   -7.0237037   0.13247803 0.0016727023 0.0033573058           49    6.0360336    830.29521    1.0405937 
    6700    0.5186083   -7.0469998   0.13474022 0.0016758733 0.0032789882           36    5.8038192    831.59341    1.0389693 
    6800   0.56775115   -7.0900655   0.13693138 0.0016780805 0.0032041743           37    5.5420434    832.42609      1.03793 
    6900   0.55055416   -7.0667183   0.14530501 0.0017548913 0.0031547821           38    6.0787242    827.09409    1.0446212 
    7000   0.54858664   -7.1285926   0.15029971 0.0017892821 0.0031296967           59    5.2627751    832.81148    1.0374497 
    7100    0.5378043   -7.0537509   0.15514301 0.0018209272 0.0031147121           40    5.6825946    832.35784    1.0380151 
    7200   0.55184899   -7.0426755    0.1582964 0.0018321341 0.0031015908           15     5.903177    830.90441    1.0398308 
    7300   0.54522416   -7.0854351   0.15914231 0.0018166929 0.0030844947           23    5.3204926    835.24978    1.0344211 
    7400   0.53557674   -7.0865149   0.16240194 0.0018288506 0.0030578135           54    5.6722572    830.87841    1.0398633 
    7500   0.55516035   -7.1089682    0.1693853 0.0018820588 0.0030468318           34    5.5175608    831.12712    1.0395522 
    7600   0.53534338   -7.0643281   0.16771522 0.0018389826 0.0030296718           48    5.9243682     829.2542    1.0419001 
    7700   0.56943168   -7.0598768    0.1704919 0.0018451503 0.0030081541           27    5.4435015    835.75192    1.0337996 
    7800   0.56898147   -7.0687105   0.17253149  0.001843285 0.0029831521           25    5.9541974    828.54042    1.0427976 
    7900   0.54444478   -7.0758983   0.17645303 0.0018613187 0.0029613783           26      5.76136    830.23174    1.0406733 
    8000   0.55212355   -7.0506326   0.17578911 0.0018311364  0.002940344           52    5.5172457    835.29518    1.0343649 
    8100   0.53679146   -7.0490072   0.17544056 0.0018049439 0.0029041925           33     5.684953    832.75441    1.0375208 
    8200   0.52400939   -7.0807387   0.17435836 0.0017719345 0.0028642097           22    5.8313914    828.64135    1.0426706 
    8300   0.54597767    -7.112511   0.18005836 0.0018078148 0.0028246472           32    5.5942801    829.79145    1.0412255 
    8400   0.55419276   -7.0647287   0.18234034 0.0018089318 0.0027935797           12    5.7724726    830.93535    1.0397921 
    8500   0.54821879   -7.0886173   0.18395117 0.0018034428 0.0027628135           31    5.2537288    835.70825    1.0338536 
    8600   0.54423884   -7.0906899   0.19008322 0.0018418916 0.0027377455           39    5.8638037    828.05712    1.0434063 
    8700   0.53444281   -7.0736137   0.19194326 0.0018385369  0.002719741           32    5.6108683    832.17934    1.0382377 
    8800   0.53694478   -7.0582192   0.19335027 0.0018309683 0.0026967859           33    5.6737414    832.47953    1.0378634 
    8900   0.56451414   -7.0980182   0.18740964 0.0017547719 0.0026648387           25    5.4921936    832.00663    1.0384533 
    9000   0.53911465   -7.0730896   0.18955543 0.0017551428 0.0026269353           14    5.9325144    828.52705    1.0428145 
    9100   0.59045859   -7.1098374   0.19158186 0.0017544125 0.0025927989            9    5.5602187    830.88425     1.039856 
    9200    0.5308797   -7.0883898   0.19427241 0.0017597137 0.0025615916           16    5.7092797    829.79811    1.0412171 
    9300   0.53950175   -7.0630458   0.20012658 0.0017932488 0.0025352072           21    5.6198078    832.44418    1.0379074 
    9400    0.5493641   -7.0835774   0.20184586 0.0017894136 0.0025135997           21    5.5412651    832.71325    1.0375721 
    9500   0.55954332   -7.0585167   0.19809546 0.0017376794 0.0024880587           26    6.0591436    827.80994    1.0437178 
    9600   0.55374475    -7.071989   0.19368577    0.0016813 0.0024501663           37    5.4906004    833.76371    1.0362648 
    9700   0.53793451   -7.0676566   0.19364115 0.0016635836 0.0024101916           46    5.7778459    830.16077    1.0407623 
    9800   0.55056382   -7.1028044    0.2004854 0.0017048077 0.0023761282           42    5.6898571    829.30337    1.0418383 
    9900   0.56411326   -7.0963449   0.20296853 0.0017084892 0.0023476851           42    5.5628755    831.81868    1.0386879 
   10000   0.54599938   -7.0520207   0.20828481 0.0017357067 0.0023239594           73    5.6266678    833.36169    1.0367647 
   10100   0.52151974   -7.0702043   0.20857681 0.0017209307 0.0023019642           30    5.8362071    829.25476    1.0418994 
   10200   0.55352515   -7.0960117   0.20978264 0.0017139104 0.0022783821           67    5.5553928    831.14296    1.0395324 
   10300   0.53617781   -7.0691279   0.21524532 0.0017414669 0.0022591212           74    6.1038254    826.44964    1.0454358 
   10400   0.54302681   -7.0824448   0.22049365  0.001766776  0.002242981           82     5.215672    836.44698    1.0329405 
   10500   0.55405298   -7.0674353   0.22827917 0.0018117393 0.0022347455          129    5.9642173    828.34893    1.0430387 
   10600   0.55429486   -7.1062596   0.22871082  0.001798041 0.0022280043           97    5.6228395    829.84112    1.0411632 
   10700   0.53802545   -7.0650614   0.23273192 0.0018125538 0.0022219921           75    5.7178416    831.13738    1.0395393 
   10800   0.55939078   -7.0855446   0.22929729 0.0017692691 0.0022131022           91    5.5597522    832.28763    1.0381027 
   10900   0.54112802   -7.0738728   0.22698473 0.0017353572 0.0022003771           49    5.9383061    828.14916    1.0432903 
   11000   0.55050289    -7.103202   0.21981664 0.0016652775 0.0021793315           83    5.2121803    834.90082    1.0348535 
   11100   0.55110501   -7.0988299   0.22733799 0.0017067416 0.0021581298           90    5.8537596    827.53835    1.0440604 
   11200   0.53495581   -7.1172005   0.23095228 0.0017183948 0.0021421957           81    5.7602211    827.57875    1.0440094 
   11300   0.53898152   -7.1015671   0.23583748 0.0017392144 0.0021288144          103    5.3275986    833.41797    1.0366947 
   11400   0.54676677   -7.0722842   0.23754695 0.0017364542 0.0021186915          103    5.9951897    827.65344    1.0439152 
   11500    0.5559524   -7.0657844   0.23970465 0.0017369902 0.0021077301           75    5.4378682    834.85056    1.0349158 
   11600   0.55285616   -7.0894533    0.2399533 0.0017238023 0.0020963296           86    5.8586453    828.00696    1.0434695 
   11700   0.54284867   -7.1019984   0.24110093  0.001717243 0.0020840909          100    5.7512911    828.67968    1.0426224 
   11800   0.55786243   -7.0966994   0.23829592 0.0016828807 0.0020709279           88    5.3574465    834.21461    1.0357047 
   11900   0.56004813   -7.0665979    0.2368505 0.0016586169  0.002053334           72    5.8563225    830.00086    1.0409628 
   12000   0.54802257    -7.113829   0.24397721 0.0016942861 0.0020382846           88    5.5379876    830.23566    1.0406684 
   12100   0.53691566   -7.0818789   0.24459472 0.0016845366 0.0020266997          101    5.7593205    829.83528    1.0411705 
   12200   0.57932731   -7.0859965   0.23830522 0.0016277679 0.0020103158           61    5.5620434    832.27091    1.0381235 
   12300    0.5653609   -7.1088326   0.23804374 0.0016127624 0.0019910381           51     5.694919    828.95299    1.0422786 
   12400   0.52640391   -7.0776965   0.24408115 0.0016403303 0.0019744023           65     5.698038    830.96819     1.039751 
   12500   0.56768435    -7.066389   0.24555983 0.0016370655 0.0019597523           52    5.8504296    829.95747    1.0410172 
   12600   0.56263182   -7.0759544    0.2458765 0.0016261672 0.0019449338           72    5.8246345     829.5371    1.0415447 
   12700   0.53507167   -7.1195422   0.24797002 0.0016270998 0.0019307664           61    5.6182657    828.85372    1.0424035 
   12800   0.54188242   -7.0801237   0.24835077 0.0016168669  0.001916784           70    5.8840712    828.67427    1.0426292 
   12900   0.54027063   -7.0614391   0.25402129 0.0016409643 0.0019034952           69    5.6380434    832.30098     1.038086 
   13000    0.5050678   -7.0752971   0.25696439 0.0016472075 0.0018930129           73    5.4821177    833.34209    1.0367891 
   13100    0.5526686   -7.0675525   0.25619044 0.0016297101 0.0018818147           53    6.4031754    823.06558    1.0497341 
   13200   0.52901039   -7.0908432   0.26245126 0.0016568892 0.0018722177           62    5.0834448    837.49976    1.0316421 
   13300   0.56655096   -7.0842451   0.25726889 0.0016119604 0.0018620852           72    5.8488926     829.0001    1.0422194 
   13400   0.54905142   -7.0608103   0.25765213 0.0016023142   0.00184937           92     5.876017    829.73956    1.0412906 
   13500   0.54674453   -7.0835132   0.25957489 0.0016023141 0.0018373453           91    5.3987056     834.2691    1.0356371 
   13600   0.50757477   -7.0695427   0.26456581  0.001621114 0.0018266919           77    5.8181642    829.64153    1.0414136 
   13700   0.53842989   -7.0912782   0.26699819 0.0016240765 0.0018169059           22    5.2573214    835.34579    1.0343022 
   13800   0.57002843   -7.0797025   0.25541754 0.0015423764 0.0018053963           65    5.9064825    828.78028    1.0424959 
   13900   0.56607107   -7.1269364   0.24820624  0.001488047 0.0017875142           82    5.4994977     830.1331     1.040797 
   14000   0.53579663   -7.0939804   0.24796107 0.0014759587 0.0017681384           74    5.7956033    828.48585    1.0428663 
   14100   0.56731383   -7.0994411   0.24942933 0.0014741686 0.0017485941           89    5.5159639    831.70178    1.0388339 
   14200   0.54606326   -7.1112308   0.25674464 0.0015067173 0.0017322987           95    5.6927674    828.59688    1.0427266 
   14300   0.55109498   -7.0926628    0.2614757 0.0015237511 0.0017182365           69    5.8652596    828.02566    1.0434459 
   14400   0.58363939   -7.0991773    0.2694106 0.0015590891 0.0017070677           90    5.5410094     831.6515    1.0388967 
   14500   0.56456388   -7.1063624   0.27204693 0.0015634881 0.0016989015           63    5.7120558    829.21213    1.0419529 
   14600   0.53484223   -7.0955096   0.27129128 0.0015484662  0.001689512           80    5.5115444    831.81389    1.0386939 
   14700    0.5686501   -7.0960903   0.28197363 0.0015984899 0.0016821005          100    5.4887535    832.50574    1.0378307 
   14800     0.544334   -7.1111526   0.28941509 0.0016295894 0.0016786429          111    5.6914772    828.67924     1.042623 
   14900   0.54943783   -7.0917798   0.28715615 0.0016060187 0.0016757894           89      5.80096    828.80002     1.042471 
   15000   0.55564247   -7.1226526   0.28911539 0.0016061966 0.0016713789          116    5.4340988    831.23971    1.0394114 
   15100   0.51872199   -7.1080246   0.28868597 0.0015931896 0.0016671589          115      5.69571    828.47105     1.042885 
   15200   0.54646042   -7.1034003   0.28493227 0.0015621286  0.001660884           68    5.6449735    830.07511    1.0408697 
   15300   0.55324357   -7.1388559   0.28789026 0.0015680297 0.0016546297          120    5.2435253    832.67355    1.0376215 
   15400   0.53673294   -7.1018826   0.28724897 0.0015543775 0.0016483092          153    5.7705481    828.42171    1.0429471 
   15500   0.51828882   -7.1321937   0.28914064 0.0015545195 0.0016412432          165    5.4757788    829.87391     1.041122 
   15600   0.55695292   -7.1088011   0.29114025 0.0015552363 0.0016349479          137    5.8706718     826.7453    1.0450619 
   15700   0.54591142   -7.1128868   0.28879333 0.0015328733 0.0016281546          139    5.4768979    831.32005    1.0393109 
   15800   0.51958939   -7.1250981   0.27575638 0.0014544113 0.0016183074          139      5.46703    830.41789      1.04044 
   15900   0.56200793   -7.1023136   0.27522022 0.0014424539 0.0016053878          159    6.2274142     823.1123    1.0496745 
   16000    0.5722783    -7.138663   0.27885882 0.0014523896  0.001594244          143    5.3319736    831.10284    1.0395825 
   16100   0.54584249   -7.1217969   0.28102649 0.0014545884 0.0015835574          115    5.9954479    824.16245     1.048337 
   16200    0.5546935   -7.1373025   0.28940715 0.0014887199 0.0015744297          133    5.6054113    828.40852    1.0429637 
   16300   0.55373189   -7.1190245   0.29543125 0.0015103847 0.0015675233          146    5.3802694    831.84726    1.0386522 
   16400   0.58998102   -7.1217658    0.2958201 0.0015031509 0.0015612311          122    5.8573752    826.48554    1.0453903 
   16500   0.55241192   -7.1361557   0.30342487 0.0015324488 0.0015560348          135    5.5985105    828.77287    1.0425052 
   16600   0.56104011   -7.1447629   0.30513976 0.0015318261 0.0015518963          127    5.4291247     830.0675    1.0408792 
   16700   0.57806751   -7.0881834   0.30491141  0.001521514  0.001547584          130    6.1711116     824.9091    1.0473881 
   16800    0.5315347   -7.1497628   0.30446992 0.0015102674 0.0015427145          156    5.2769077    830.86296    1.0398827 
   16900   0.57201594   -7.1461017   0.30136026 0.0014859973 0.0015369914          185    5.7140805    826.98561    1.0447582 
   17000   0.59167981   -7.1541531   0.30435587 0.0014919405 0.0015310934          197    5.4932143    829.12984    1.0420563 
   17100   0.54801544   -7.1574072   0.31200375 0.0015204861 0.0015263956          186    5.6579757      826.457    1.0454264 
   17200   0.54775431   -7.1342845   0.31466817  0.001524555 0.0015231686          173    5.6546496    827.84164    1.0436779 
   17300   0.55639294   -7.1373218   0.31629819 0.0015235943 0.0015199831          182    5.5368043    829.23386    1.0419256 
   17400   0.53367215    -7.104272   0.31346144 0.0015012521 0.0015158757          190     6.058394    824.76802    1.0475673 
   17500   0.52612808   -7.1431092   0.31299991 0.0014904757 0.0015112249          159    5.4694243    828.58213    1.0427452 
   17600   0.53878081   -7.0985507   0.31324844 0.0014831839 0.0015062056          162     5.747322    828.76002    1.0425213 
   17700   0.55927885   -7.1016706   0.31881189 0.0015009976 0.0015022027          168     5.803496     828.0252    1.0434465 
   17800   0.52067544   -7.1100353    0.3179604 0.0014885786 0.0014981786          175    5.4581178    831.00087    1.0397101 
   17900    0.5313926   -7.0958921   0.31725749 0.0014769901   0.00149358          204    5.6359747    830.36078    1.0405116 
   18000   0.53755241   -7.0960892   0.32096332 0.0014859412 0.0014893459          187    5.9364753    826.47457    1.0454042 
   18100    0.5779928   -7.1372506   0.32296509 0.0014869479 0.0014852394          202    5.5704245    828.94521    1.0422884 
   18200   0.55551347   -7.1184378   0.32919827  0.001507318 0.0014820536          193    5.9842407    824.99199    1.0472829 
   18300   0.53392561    -7.148004   0.33321527 0.0015173737 0.0014796267          190    5.4616817    828.68374    1.0426173 
   18400   0.57798593   -7.1298437   0.33155669 0.0015016154 0.0014773989          184    5.8935033    825.52295    1.0466093 
   18500   0.54312972   -7.1259984   0.32632918 0.0014699512 0.0014737053          208    5.6714091    827.82506    1.0436988 
   18600   0.55967561   -7.1443867   0.32419045 0.0014524661 0.0014690773          205    5.3200589     831.3257    1.0393039 
   18700    0.5744057   -7.0948977   0.32486063 0.0014476855 0.0014637569          226    6.0161465    826.28821      1.04564 
   18800   0.53716419   -7.1357719   0.33153649 0.0014695766 0.0014596733          238    5.5687802    828.43794    1.0429266 
   18900   0.53875704   -7.0996915   0.32650579 0.0014396198 0.0014550074          206    5.6937578     828.9854    1.0422379 
   19000   0.54697822    -7.089627   0.33054425 0.0014497554 0.0014502463          198    5.6097848    831.12385    1.0395563 
   19100   0.56185726   -7.1478699    0.3333643  0.001454469 0.0014458698          196    5.7922785    825.27128    1.0469285 
   19200   0.58572764   -7.1393791   0.33121799 0.0014375781 0.0014416183          173    5.7286672    826.87506    1.0448979 
   19300   0.55677346    -7.127613   0.33284559 0.0014371571 0.0014371884          188    5.3942975    831.28242     1.039358 
   19400   0.56317342   -7.1476007   0.33061459 0.0014201657 0.0014322106          229    5.8688864    824.32266    1.0481333 
   19500    0.5560969   -7.0999065   0.33331951 0.0014244423  0.001427545          176    5.8977981    826.89404    1.0448739 
   19600   0.52282838   -7.1029967   0.33262001 0.0014142007 0.0014226132          198     5.455257    831.59533    1.0389669 
   19700   0.55821735   -7.1261794   0.33175083 0.0014033453 0.0014174846          199    5.7630036    826.80805    1.0449826 
   19800   0.52198371   -7.1442845    0.3372282 0.0014193106 0.0014124532          199    5.5005973    828.54504    1.0427918 
   19900   0.55773905   -7.1112668   0.33825904 0.0014164951 0.0014081747          238    5.9301209    825.74066    1.0463334 
   20000   0.55998284   -7.1285082   0.33637689 0.0014015703 0.0014033558          217    5.7319375    827.38746    1.0442508 
   20100    0.5532471   -7.1537924    0.3368273 0.0013964647 0.0013987028          248     5.367737     829.5539    1.0415236 
   20200   0.53148731   -7.1297842   0.33498892 0.0013819675 0.0013932129          226     6.114089    822.13672    1.0509201 
   20300   0.54396767   -7.1132343   0.33213415 0.0013634406 0.0013873607          225    5.5157974    830.67512    1.0401178 
   20400   0.56077366   -7.1115136   0.33360431 0.0013627627 0.0013811045          227    5.8175538    827.15877    1.0445395 
   20500    0.5386563   -7.1116081   0.33860725 0.0013764522  0.001375948          262    5.9088187    826.15712    1.0458059 
   20600   0.56356735   -7.1658864   0.34049217 0.0013773955 0.0013708812          256    5.2080061    831.18053    1.0394854 
   20700    0.5509601   -7.1085005    0.3443757 0.0013863756 0.0013662248          243    5.9091682    826.08639    1.0458955 
   20800   0.54216231    -7.154193    0.3464942 0.0013881979 0.0013621711          222    5.5612998    827.47586    1.0441392 
   20900   0.55207117   -7.1461142   0.34763476 0.0013861035 0.0013580783          237    5.5988439    827.75261    1.0437901 
   21000    0.5707877   -7.1246264   0.35257544 0.0013991088 0.0013545341          238    5.9994693    824.20121    1.0482877 
   21100    0.5269141   -7.1296088   0.35861952 0.0014163488 0.0013517367          222      5.59045    827.90815     1.043594 
   21200   0.53260561   -7.0994726   0.36065991 0.0014176883 0.0013493867          235    5.7407968     828.8444    1.0424152 
   21300   0.56347682   -7.1482232   0.36266996 0.0014188965 0.0013470188          241    5.6331792    827.10316    1.0446097 
   21400   0.54300088   -7.1416874   0.36486517 0.0014208145  0.001345108          259    5.7910057    825.63424    1.0464682 
   21500   0.55661357   -7.1390958   0.36819183 0.0014271001 0.0013431662          246    5.2955483    831.73656    1.0387905 
   21600   0.57101326   -7.0810977   0.36756404 0.0014180711 0.0013416264          263    6.4625941    822.18882    1.0508535 
   21700   0.52026669   -7.1368368   0.36520562 0.0014024793 0.0013393501          268    5.3355588    830.60547     1.040205 
   21800   0.55307865    -7.139573   0.36717369 0.0014035691 0.0013365697          285    5.6767542    827.10261    1.0446104 
   21900   0.55133674    -7.131997   0.37735934 0.0014359183 0.0013350337          294    5.5828749    828.79847     1.042473 
   22000   0.54911677    -7.102487   0.36596233 0.0013862209 0.0013332296          281    5.7985685    827.99341    1.0434866 
   22100   0.52652741   -7.1412556   0.36816116 0.0013882396 0.0013301577          295    5.6412847    827.42239    1.0442067 
   22200   0.56428804    -7.150927   0.37465335 0.0014063564  0.001327827          301    5.7802915    825.57606     1.046542 
   22300   0.56308615   -7.1491415    0.3882568 0.0014508849 0.0013268225          280    5.1926526    832.28549    1.0381053 
   22400   0.55552814   -7.0906964   0.39553721 0.0014714926 0.0013273219          290    5.8191199    828.62528    1.0426909 
   22500   0.55729321    -7.166788   0.39641753  0.001468213  0.001328092          289    5.5651297    826.75974    1.0450436 
   22600   0.56722822   -7.1746096   0.39014601 0.0014385914 0.0013280754          292    5.5074166    827.25077    1.0444233 
   22700   0.57459656   -7.1052937   0.38936045 0.0014293702 0.0013272681          270    5.7049256    829.11135    1.0420796 
   22800   0.55207413   -7.1538911   0.38759386 0.0014166442  0.001326305          285    5.3464448    829.86853    1.0411288 
   22900   0.55902354   -7.1171833    0.3906899 0.0014217245 0.0013251069          284    6.1815462    822.51388    1.0504382 
   23000   0.55251823   -7.1900169   0.38964111 0.0014117431 0.0013238771          298    5.0770426    831.00706    1.0397024 
   23100   0.55885261    -7.142033   0.38069378 0.0013733542 0.0013217278          278    5.9005883    824.42545    1.0480026 
   23200   0.53930554   -7.1290084   0.37702271 0.0013542482 0.0013184446          275    5.3653162    831.32191    1.0393086 
   23300   0.54417668   -7.0960325   0.38841297 0.0013891737 0.0013157535          289    5.7568577     829.0251     1.042188 
   23400   0.52730099   -7.1213456   0.39290588 0.0013992374 0.0013142082          289    5.8789066    825.76737    1.0462995 
   23500   0.55199495   -7.1315042   0.39078971 0.0013857791 0.0013125093          281    5.5369245    829.26199    1.0418903 
   23600   0.54210318     -7.09208   0.39012531 0.0013775611 0.0013103874          307    5.8434997    828.53995    1.0427982 
   23700   0.54235607   -7.1657476   0.38458969 0.0013522844  0.001307623          327    5.4829358    827.44727    1.0441753 
   23800   0.55785794   -7.1763418   0.39196532 0.0013724275 0.0013050601          299    5.7339614    824.34222    1.0481084 
   23900   0.55985807   -7.1338452    0.3977946 0.0013870104 0.0013032006          281    5.4524214    830.66072    1.0401359 
   24000   0.54216265   -7.1255705   0.40833104 0.0014178161  0.001302166          274    5.7440758    827.13727    1.0445666 
   24100   0.56177424   -7.1316247   0.40688819 0.0014069439 0.0013018653          270    5.8245976    825.85522    1.0461882 
   24200   0.54853085   -7.1479988   0.39473776 0.0013592898   0.00130014          291    5.8106207    825.15403    1.0470772 
   24300   0.53591269   -7.1630783   0.39562682 0.0013567449 0.0012974668          278    5.5031672    827.43086     1.044196 
   24400   0.54631123   -7.1080269   0.39651242 0.0013542091 0.0012950281          273    5.6996865    828.75975    1.0425217 
   24500   0.52435206   -7.1230482   0.39813371 0.0013541963 0.0012926689          279    5.9052353    825.13181    1.0471054 
   24600    0.5456723    -7.158133   0.39287742 0.0013308856 0.0012897279          252    5.6805038    825.78928    1.0462718 
   24700   0.55155974   -7.1275984   0.39892329  0.001345895 0.0012869964          267    5.5799999    829.35505    1.0417734 
   24800   0.54145053   -7.0967865   0.40155434 0.0013493089 0.0012844579          251     5.703819    829.59083    1.0414773 
   24900    0.5414611   -7.1380417   0.40171222 0.0013444184 0.0012822842          262    5.5606061    828.45227    1.0429086 
   25000   0.56792989   -7.1633951   0.40099923 0.0013366641 0.0012797448          287    5.9245132    823.07099    1.0497272 
   25100   0.55806063   -7.1535288   0.39886734 0.0013242607 0.0012770382          288    5.5121662    828.34908    1.0430385 
   25200   0.56247791   -7.0953331   0.40686072 0.0013454389 0.0012745072          313    6.0382392    825.63464    1.0464677 
   25300     0.545964    -7.165057   0.40994837  0.001350291 0.0012726948          310    5.3814191    828.84687    1.0424121 
   25400   0.56135538   -7.1287576   0.40723545 0.0013360743 0.0012705882          323    6.2061838    821.67875    1.0515058 
   25500   0.55215873   -7.1579029   0.40477711  0.001322801 0.0012681764          306    5.3237584    830.34667    1.0405293 
   25600   0.57794606   -7.1515166   0.39816744 0.0012961179 0.0012650649          297    5.7085326     826.2202    1.0457261 
   25700   0.56326813   -7.0917424    0.4042974 0.0013109513 0.0012620585          274    6.1649158    824.37983    1.0480606 
   25800   0.53889209   -7.1554707    0.4079038 0.0013175187 0.0012594501          276     5.216627    831.34642    1.0392779 
   25900   0.52602682   -7.1303748   0.40743876 0.0013109355 0.0012567218          289    5.9190313     824.4792    1.0479343 
   26000   0.56217126   -7.1658137   0.40568844 0.0013002834 0.0012539959          287    5.6641564    825.70007    1.0463848 
   26100   0.57182504   -7.1748261   0.40859279 0.0013045747 0.0012510418          305    5.5648462    826.36507    1.0455427 
   26200   0.54046688   -7.1669988   0.40895749 0.0013007554 0.0012484523          292    6.0312182    821.49177    1.0517452 
   26300   0.53575792   -7.1463658   0.40842482 0.0012941217 0.0012454685          305    5.2528869    831.76328    1.0387571 
   26400   0.56560908   -7.1351873   0.41698505 0.0013162407 0.0012429898          342    5.9701497    824.29305    1.0481709 
   26500   0.53763004   -7.1691793   0.42262239 0.0013290012 0.0012411833          329    5.6191994    825.70931    1.0463731 
   26600    0.5320994   -7.1461965   0.42569351 0.0013336263 0.0012395544          294    5.5997938    827.16362    1.0445334 
   26700   0.57138626    -7.131777   0.43196069 0.0013481919 0.0012384192          308    5.7250501    827.09611    1.0446186 
   26800   0.54902115   -7.1524598   0.42949937  0.001335508 0.0012371793          290    5.4766209    829.01908    1.0421956 
   26900    0.5627969    -7.141193   0.42641518 0.0013209888 0.0012355841          288    5.8607187    824.49766    1.0479108 
   27000   0.56443771    -7.207938   0.42732256 0.0013188968 0.0012338644          283    5.5322329    824.44326    1.0479799 
   27100   0.53883922   -7.1768759   0.42720759 0.0013136764 0.0012321189          280    5.6483583    824.58182    1.0478038 
   27200   0.55520359   -7.1543065   0.42656318 0.0013068725 0.0012302915          284    5.5333524    828.14782     1.043292 
   27300   0.56472063   -7.1890936   0.42713999 0.0013038461 0.0012281194          295    5.5166668    826.14533    1.0458208 
   27400   0.54991079   -7.1566115   0.42643916 0.0012969561 0.0012261384          303    6.0198475    822.02083    1.0510683 
   27500   0.55800059   -7.1430334   0.43353119 0.0013137309 0.0012241942          333    5.5342987    828.66491     1.042641 
   27600   0.54531843    -7.135785   0.43341531 0.0013086211 0.0012225651          296    5.5134526    828.81079    1.0424575 
   27700   0.53533149   -7.1688208   0.42722096 0.0012852616 0.0012205145          315    5.5681518    826.31277    1.0456089 
   27800   0.53787316   -7.1148792   0.42305597 0.0012681534 0.0012179277          291    6.0981401    823.22742    1.0495277 
   27900   0.57329284   -7.1575251   0.42164508 0.0012593939 0.0012149962          307    5.2965409    830.71396    1.0400692 
   28000    0.5294164   -7.1133504   0.42606836 0.0012680606 0.0012121475          322    6.2283743     821.9705    1.0511326 
   28100   0.54312691   -7.1760247   0.42940204 0.0012734343 0.0012096426          265    5.2130166    829.88998    1.0411019 
   28200   0.53636717   -7.1560373   0.43213277 0.0012769881 0.0012072914          275    6.0021372     822.0153    1.0510753 
   28300   0.55081159   -7.1487983   0.43242513 0.0012733366 0.0012050305          302    5.4945016    828.70158    1.0425948 
   28400   0.52485013   -7.1048371   0.43632605 0.0012802994 0.0012028819          283    5.8777363    826.41351    1.0454815 
   28500   0.59103472   -7.1820673   0.43045187 0.0012586312 0.0012006442          293    5.5665276    825.99189    1.0460151 
   28600   0.55188682   -7.1376056   0.42150453   0.00122816 0.0011976753          302    6.1038488    822.10063    1.0509662 
   28700   0.57510499   -7.1490869   0.42900226 0.0012456511 0.0011945715          283    5.9897574    822.90835    1.0499347 
   28800   0.55575156   -7.1796771   0.42946892 0.0012426763   0.00119199          288    5.1700878    830.45476    1.0403938 
   28900   0.57483961   -7.1173045   0.43214029 0.0012460793  0.001189222          295    6.0067179    824.93273    1.0473581 
   29000   0.54004133   -7.1600027   0.43463515 0.0012489515 0.0011866366          260    5.5369916    827.53808    1.0440607 
   29100   0.57921166   -7.1730883   0.43665756 0.0012504512 0.0011840784          281    5.4151237    828.42461    1.0429434 
   29200   0.52835373   -7.1213076   0.44817418 0.0012790359 0.0011821371          264    5.8633097    825.36309     1.046812 
   29300   0.53085028   -7.1777426   0.44552106 0.0012671247 0.0011804204          313    5.5646004    825.55289    1.0465713 
   29400   0.55419518   -7.1373751   0.45117967 0.0012788539 0.0011788267          290    5.5698835    828.30628    1.0430924 
   29500    0.5529052    -7.134327   0.44831956 0.0012664394 0.0011773296          292    5.5915929     828.2014    1.0432245 
   29600   0.51650204   -7.1412153   0.44567717 0.0012547217 0.0011754056          322     5.705062    825.96443    1.0460499 
   29700   0.54371717    -7.130891   0.44809095 0.0012572698  0.001173402          320     5.632232    827.71507    1.0438375 
   29800   0.55399517   -7.1106846   0.44083988 0.0012327737 0.0011712168          301    6.1661063    822.96344    1.0498644 
   29900   0.53396361   -7.1478986   0.44499605 0.0012402342 0.0011688998          275    5.0743641    833.15366    1.0370236 
   30000   0.55656042   -7.1043574   0.44781731  0.001243937 0.0011666946          303    6.0331023    824.90075    1.0473987 
   30100   0.55464416   -7.1515495   0.45006697 0.0012460326 0.0011647497          280    5.7623455    825.27662    1.0469217 
   30200   0.53088348    -7.144517   0.46049565 0.0012706833 0.0011632042          317    5.4859866    828.60026    1.0427223 
   30300   0.58603886   -7.1205574   0.46176556 0.0012699823     0.001162          317    5.9811128    824.73339    1.0476113 
   30400    0.5638374   -7.1639034   0.45218993 0.0012395557 0.0011602916          312    5.7162638    825.28262    1.0469141 
   30500   0.53487895   -7.1441899   0.46332173 0.0012659063 0.0011587327          295    5.5902094    827.78243    1.0437525 
   30600   0.57610109   -7.1494302   0.46614278  0.001269452 0.0011576113          335     5.597023    827.84165    1.0436779 
   30700   0.52231923   -7.0960881   0.45910486  0.001246213 0.0011561211          311    6.2242718    823.20052     1.049562 
   30800   0.55059807   -7.1522187   0.46894701  0.001268796 0.0011547384          313    5.5373302    827.76143     1.043779 
   30900   0.55627277    -7.145578   0.46427151 0.0012520806 0.0011534299          295    5.8999195     823.9585    1.0485965 
   31000   0.53599951   -7.1761899   0.46412766  0.001247655 0.0011519233          310    5.5677944    825.53678    1.0465918 
   31100   0.55758958   -7.1289284   0.46784828 0.0012536127 0.0011505291          324     5.936559    824.52552    1.0478754 
   31200   0.55977122   -7.1562973   0.46750667 0.0012486823 0.0011491058          293     5.526966    827.67733    1.0438851 
   31300   0.52097489   -7.1183954   0.47272102 0.0012585756 0.0011477629          288    6.0549651    823.78781    1.0488138 
   31400   0.55629611   -7.1662483   0.47119112 0.0012505072 0.0011465653          330    5.3276069    829.71507    1.0413213 
   31500   0.53827114   -7.1671572   0.47245736 0.0012498872 0.0011453264          329     5.713861    824.84757    1.0474663 
   31600   0.54649792   -7.1594462   0.47981031 0.0012653225 0.0011440658          328     6.054959    821.32208    1.0519625 
   31700   0.57102467   -7.2051599   0.48524702  0.001275623 0.0011434444          321    5.0941612    829.97128    1.0409999 
   31800   0.55942943   -7.1326702   0.47656941 0.0012488716 0.0011425168          315    5.9434934    824.46125    1.0479571 
   31900   0.57895749    -7.130836   0.47014796 0.0012281817 0.0011410231          310     5.880362    825.18007    1.0470442 
   32000   0.54766252   -7.1722874   0.47378095 0.0012338045 0.0011393568          320     5.548515     826.3595    1.0455498 
   32100   0.54596061   -7.1521654   0.47249879 0.0012266324 0.0011377756          320    5.8452289    823.86292    1.0487182 
   32200   0.52639755   -7.1386569    0.4828679 0.0012496581 0.0011364074          320    5.6230597     827.6273    1.0439482 
   32300   0.55830302   -7.1260781   0.48416126  0.001249126 0.0011354847          327    5.7973993    826.61913    1.0452214 
   32400   0.55396332   -7.1609747   0.48095611  0.001237027 0.0011341698          310    5.2920918     830.5019    1.0403348 
   32500   0.54368425   -7.1326768   0.47598635 0.0012204778 0.0011327014          309    5.9392656    824.38835    1.0480497 
   32600   0.56347459   -7.1702106   0.47714087 0.0012196852 0.0011309514          322    5.6594199    825.41152    1.0467506 
   32700   0.57639727   -7.1568081   0.48041107 0.0012242892 0.0011294613          324    5.3405822     830.4977      1.04034 
   32800   0.56518596   -7.1289109   0.47869668 0.0012162009 0.0011278692          315    5.7615436    827.04429    1.0446841 
   32900   0.54702357   -7.1548642   0.47374608 0.0011999647 0.0011260569          300     5.871559    824.14278     1.048362 
   33000   0.53095623   -7.1549415   0.47684047 0.0012041426 0.0011242393          332    5.3685776     829.2508    1.0419043 
   33100   0.55959227   -7.1624786   0.47660381 0.0011999089 0.0011222384          360    5.6406476    826.10342    1.0458739 
   33200   0.53358356   -7.1495896   0.47881575 0.0012018468 0.0011203963          347    5.7740014    824.77789    1.0475548 
   33300   0.55077521   -7.1888179    0.4874425 0.0012198261 0.0011188593          336    5.5449438    825.50251    1.0466352 
   33400   0.57970326   -7.1361486    0.4912572 0.0012256916 0.0011176336          325    6.2116799    821.70258    1.0514753 
   33500   0.53535621   -7.1664984   0.50027665 0.0012444693 0.0011167301          335    5.2958632    829.66127    1.0413889 
   33600   0.53657119   -7.1452568   0.50375574 0.0012493942 0.0011161543          339    5.7297993    825.81183    1.0462432 
   33700   0.56923615   -7.1402615   0.51455483 0.0012723908 0.0011159046          324     5.856732    825.22893    1.0469822 
   33800   0.54221905   -7.1753943    0.5056466 0.0012466632 0.0011156569          332    5.4648277    827.15123     1.044549 
   33900   0.54835164    -7.153943   0.50012377 0.0012294094 0.0011148323          321    5.9339048    823.40334    1.0493035 
   34000    0.5625748   -7.1511541   0.49934849 0.0012238933 0.0011137322          340    5.5208689    828.39853    1.0429763 
   34100   0.57535788   -7.1738484    0.5017389 0.0012261459 0.0011127164          361    5.6841481    824.83016    1.0474884 
   34200   0.54557782   -7.1587967    0.4973134 0.0012117773 0.0011115439          369    5.6179184    826.04093     1.045953 
   34300   0.55577402     -7.13963   0.49737782 0.0012084009 0.0011102109          367    5.8374784    825.53823    1.0465899 
   34400   0.53367639   -7.1457994   0.49914145 0.0012091605 0.0011088825          366    5.6170387    827.12258    1.0445852 
   34500   0.52051544   -7.1799236   0.50083811 0.0012097539 0.0011075739          387    5.4539988    826.47609    1.0454023 
   34600   0.53598793   -7.1713189    0.5028524 0.0012111088 0.0011063386          370    5.8520001    822.65645    1.0502562 
   34700   0.56038956   -7.1504619   0.50736686 0.0012184603 0.0011052891          354    5.6847358    826.20283    1.0457481 
   34800   0.56785297   -7.1308933   0.49677123 0.0011895863 0.0011040881          390    5.8837731    825.12305    1.0471166 
   34900   0.55490621   -7.2090999   0.49967606 0.0011931138 0.0011024482          369    5.2955598     827.0417    1.0446874 
   35000   0.55704979   -7.1436619   0.50715122 0.0012075029 0.0011011838          381    6.2323827    820.17199    1.0534376 
   35100   0.56591149   -7.1760585   0.52165309 0.0012384926 0.0011004962          403    5.1760596    830.76862    1.0400008 
   35200   0.54273958   -7.1578012   0.52261939 0.0012372618 0.0011001162          371    5.8612101     823.6031     1.049049 
   35300   0.55140775   -7.1605821   0.52408004  0.001237205 0.0010996384          380    5.7530163    824.94449    1.0473432 
   35400   0.56213504    -7.161123   0.53323943 0.0012552717 0.0010994744          383    5.6056018    826.61148    1.0452311 
   35500   0.57070877   -7.1541225   0.52992185  0.001243948 0.0010993567          374    6.2274411    819.86667    1.0538299 
   35600   0.55065317   -7.1942274   0.53233537 0.0012461034 0.0010991376          369    5.4548674    826.04339    1.0459499 
   35700   0.54985487   -7.1365712   0.53624523 0.0012517396 0.0010990741          385     6.100032    822.41939    1.0505589 
   35800   0.54200325   -7.1699532   0.53761434   0.00125143 0.0010989882          394    5.5518534    826.69912    1.0451203 
   35900   0.54930031   -7.1968901   0.53244186 0.0012359374 0.0010986647          379    5.7849489    821.73032    1.0514398 
   36000   0.56549003    -7.154521   0.53491457 0.0012382282   0.00109833          379     5.822291    824.21389    1.0482716 
   36100    0.5462713   -7.1720252    0.5407305 0.0012482237 0.0010981497          361    5.5893278     825.9625    1.0460523 
   36200   0.55858527    -7.177681   0.53457507 0.0012306056 0.0010979066          358    5.4497522    826.93142    1.0448267 
   36300   0.56891291   -7.1725798   0.53678857  0.001232297 0.0010974981          355    5.6716608    825.15013    1.0470822 
   36400   0.54385621   -7.1858495   0.52305788 0.0011974768 0.0010966853          357    5.7605192     822.5529    1.0503884 
   36500   0.58024393   -7.1704322   0.52564358 0.0012000995 0.0010957228          394    6.0312658    820.99415    1.0523826 
   36600   0.56924763   -7.1833377   0.53042662 0.0012077109 0.0010948032          407    5.6328301    824.94872    1.0473378 
   36700   0.53944693   -7.1883519    0.5420143 0.0012307318 0.0010941746          411    5.3903513    826.96839      1.04478 
   36800   0.52463322   -7.1680723   0.54807267 0.0012411066 0.0010939837          379    5.9376827     822.0251    1.0510628 
   36900   0.55527235   -7.1704487   0.54780595 0.0012371408 0.0010937804          403    5.4047569    828.49262    1.0428578 
   37000   0.53649843   -7.1348899    0.5478474 0.0012338905 0.0010936072          359    5.9308191    824.17386    1.0483225 
   37100   0.57880649   -7.1275176   0.55153884 0.0012388563 0.0010934375          375    5.9516147    824.93087    1.0473605 
   37200   0.54590031    -7.179026   0.55474794 0.0012427149  0.001093351          373    5.3362065    828.50854    1.0428378 
   37300   0.53832075   -7.1759259   0.55523136 0.0012404633 0.0010933141          404    5.6449975    824.58698    1.0477973 
   37400   0.58272323   -7.1478494   0.54563927 0.0012157738 0.0010929255          385    5.8504164    824.30755    1.0481525 
   37500    0.5626368   -7.1627727   0.54366092 0.0012081354 0.0010922266          358    5.5340194    827.35447    1.0442924 
   37600   0.55127178   -7.1853835   0.54307472  0.001203623 0.0010915513          374    5.7191217    823.78736    1.0488143 
   37700   0.54813824   -7.1627137   0.54258659 0.0011993514  0.001090669          385    5.7465661    824.65589    1.0477097 
   37800   0.54424536    -7.129393   0.54620436 0.0012041542 0.0010898876          338    5.6093596    828.24481    1.0431698 
   37900   0.52332021   -7.1706781   0.55798162 0.0012268725 0.0010894328          338    5.5224514    826.49125    1.0453831 
   38000   0.55068936   -7.1404032   0.57032939 0.0012507223 0.0010893867          362    5.9779466    823.47744    1.0492091 
   38100     0.588186   -7.1734607   0.58353037 0.0012763131 0.0010898661          378    5.1041287    832.25301    1.0381458 
   38200   0.57990638   -7.1562417   0.58144626 0.0012684255 0.0010905701          375    6.2306891    819.67591    1.0540751 
   38300   0.54326714   -7.1785657   0.58880109 0.0012811164 0.0010913114          381    5.5824455    825.52844    1.0466023 
   38400   0.56129801   -7.1836498    0.5861227 0.0012719676 0.0010920372          406    5.5970712     824.9764    1.0473027 
   38500   0.54211437   -7.1526662   0.58090117 0.0012573618  0.001092592          371    5.7777394    824.89318    1.0474083 
   38600   0.54450551    -7.166778   0.56583862 0.0012215859 0.0010925344          408    5.3940966    828.94017    1.0422948 
   38700   0.54278371   -7.1761892    0.5559459 0.0011971273 0.0010919441          459    6.0246932    819.99876    1.0536601 
   38800   0.53998266   -7.2241416   0.57211719  0.001228774 0.0010914463          431    5.4100972    824.30537    1.0481553 
   38900   0.55866994   -7.1777279   0.57003855 0.0012211623 0.0010912252          437    5.8788249    821.93029     1.051184 
   39000   0.54247963   -7.1968868   0.57547061  0.001229638 0.0010909878          430     5.186029     828.6318    1.0426827 
   39100   0.53378258   -7.1839194    0.5736432 0.0012225984 0.0010907342          449    5.9121494    821.14952    1.0521835 
   39200   0.57531694   -7.2181763   0.57745862 0.0012275906 0.0010905109          482    5.2809074    826.65473    1.0451764 
   39300   0.53391997   -7.1433322   0.58265009 0.0012354752 0.0010905159          466    6.0446906    821.79551    1.0513564 
   39400   0.57476289   -7.1788962   0.58003497 0.0012268083 0.0010904665          483    5.5293792    826.15361    1.0458104 
   39500   0.55792705   -7.1748941   0.57924849 0.0012220432 0.0010902072          488    5.9925501    820.78137    1.0526555 
   39600   0.52150244   -7.1865206   0.57824623 0.0012168481 0.0010899343          484     5.423463    826.40544    1.0454917 
   39700   0.55028526   -7.1762297   0.58686861  0.001231882 0.0010897099          518    5.8307221    822.62234    1.0502997 
   39800   0.53761606   -7.2205458   0.59076458 0.0012369443 0.0010898368          521    5.6526983    821.82076    1.0513241 
   39900   0.52088611   -7.2220357   0.59673121 0.0012463058 0.0010899644          494    5.6290841    821.68388    1.0514993 
   40000   0.55367239   -7.2086839    0.5954784   0.00124058 0.0010901972          497    5.5307047    823.87998    1.0486964 
   40100   0.57201936   -7.1691257   0.59043351 0.0012270023 0.0010902087          498    5.7929416    823.75396    1.0488569 
   40200   0.56005078   -7.1516477   0.60494662 0.0012540353 0.0010904643          477    5.7721737     825.0256    1.0472402 
   40300   0.55551379   -7.1917297   0.61497514 0.0012716607 0.0010910471          471    5.8131314    821.89258    1.0512323 
   40400   0.56387768   -7.2219291   0.61526911 0.0012691194 0.0010917806          495    5.4898087    823.61189    1.0490378 
   40500   0.53249977   -7.2262705   0.62074052 0.0012772439 0.0010925219          502    5.5880628    821.70136    1.0514769 
   40600   0.56727258   -7.2202709   0.62179135 0.0012762548  0.001093407          500    5.4933742    823.86484    1.0487157 
   40700   0.56714196   -7.1733227   0.60296936  0.001234581 0.0010937333          484    6.0897805    819.75953    1.0539676 
   40800   0.55797814   -7.1676793   0.60032436 0.0012261527 0.0010937132          457    5.4494952    827.61765    1.0439603 
   40900   0.56013505   -7.1652906   0.60744813 0.0012376694 0.0010937529          492    6.1625207    819.45463    1.0543598 
   41000    0.5443654   -7.2026963   0.61117595 0.0012422275 0.0010938747          494    5.5634939    823.70742    1.0489161 
   41100   0.57350461   -7.2114134   0.61201829  0.001240913 0.0010940548          501    5.5514206    823.83619    1.0487522 
   41200   0.58912852   -7.1743103    0.6121493  0.001238166 0.0010942645          514    6.0009154     821.2553     1.052048 
   41300   0.53221184   -7.1891548    0.6140703 0.0012390442 0.0010944031          532    5.5585177    824.59619    1.0477856 
   41400   0.54561906   -7.2084077   0.61222303  0.001232333 0.0010944833          531    5.4920342    824.38841    1.0480497 
   41500   0.57397648   -7.1719355   0.61771513 0.0012403918 0.0010946093          537    6.0319995    821.03723    1.0523274 
   41600   0.54830988   -7.2316242   0.62504465 0.0012520926 0.0010949283          519    5.3557347    824.43534      1.04799 
   41700   0.55742227   -7.2314863   0.62221899 0.0012434432 0.0010952195          526    5.8543001    818.71264    1.0553153 
   41800   0.56116594   -7.2152785   0.62374437 0.0012435095 0.0010954817          532    5.6337494    822.62336    1.0502984 
   41900   0.55459875   -7.1997763   0.61244012 0.0012180591 0.0010955539          520    5.6430534    823.40277    1.0493042 
   42000   0.53492785   -7.2187733   0.60887988  0.001208095  0.001095263          542    5.8931153    818.98603     1.054963 
   42100   0.54021159   -7.2084687   0.61326695 0.0012139092 0.0010949534          549    5.7950152    820.62364    1.0528578 
   42200   0.54562985   -7.2090598   0.61625664 0.0012169365 0.0010947961          543     5.424117     824.8356    1.0474815 
   42300   0.53466224   -7.1988557   0.61503453 0.0012116519 0.0010946214          538    5.8911361    820.21535    1.0533819 
   42400   0.52860818   -7.2565466   0.61832214 0.0012152558 0.0010943102          579    5.2819461    823.75842    1.0488512 
   42500   0.55364073   -7.1795345   0.62428493 0.0012240881 0.0010942494          590    6.4804931    815.50128    1.0594711 
   42600   0.55589036    -7.216053   0.62444476 0.0012215273 0.0010941874          595    5.5078199    824.12869      1.04838 
   42700   0.51745768   -7.1800969   0.63001176 0.0012295311 0.0010942121          596    5.5948071    824.55111    1.0478429 
   42800   0.51305402    -7.213023    0.6324509 0.0012314075 0.0010942957          561    5.7602162    820.68063    1.0527847 
   42900   0.53931888   -7.2124834   0.63692862 0.0012372351 0.0010944909          549    5.8202378    820.33296    1.0532309 
   43000   0.55538118   -7.2223987   0.63874945 0.0012378865 0.0010947164          568    5.4464077    824.20529    1.0482825 
   43100   0.53495699   -7.2088376   0.63720204 0.0012320225  0.001094896          600    6.0071043    818.48442    1.0556096 
   43200    0.5626797   -7.2552371   0.64417198 0.0012426157  0.001095096          632    5.7659457    818.31321    1.0558304 
   43300   0.53252499   -7.2496262   0.64942525 0.0012498561 0.0010954868          627    5.1919565    825.25813    1.0469452 
   43400   0.54446072   -7.2306483   0.65549343 0.0012586279 0.0010958808          619    6.0653604     816.2613    1.0584846 
   43500   0.54686538   -7.2367213   0.67008114 0.0012836803 0.0010967501          611    5.8980947    817.81063    1.0564793 
   43600   0.54890691   -7.2372592   0.66473226 0.0012705127 0.0010976403          596    5.6956135    820.35121    1.0532074 
   43700   0.52377555   -7.2001421   0.66623951 0.0012704796 0.0010983942          595    5.7832528    821.29857    1.0519926 
   43800    0.5323607   -7.2180396   0.66855269   0.00127198 0.0010991085          605    5.4858517    823.73071    1.0488865 
   43900   0.54815818   -7.2316945   0.66768336 0.0012674323 0.0010997736          605    5.7911241    819.39345    1.0544385 
   44000   0.53986192   -7.2191746   0.67092524 0.0012706917 0.0011005154          621    5.7305676    820.91104    1.0524892 
   44100   0.53823734    -7.239449   0.66623373 0.0012589451 0.0011011589          646    5.8186424    818.35819    1.0557724 
   44200   0.55235217   -7.2527452   0.65940531 0.0012432227  0.001101543          600    5.6528894    820.06652    1.0535731 
   44300   0.57263614   -7.2308612   0.65902272 0.0012396966 0.0011018087          598     5.971097    817.95067    1.0562984 
   44400   0.53059879   -7.2385491   0.66467999 0.0012475225 0.0011021321          604    5.9011042    817.30252    1.0571361 
   44500   0.53361562   -7.2494895   0.67398467 0.0012621436 0.0011026256          599    5.3996841    822.61001    1.0503154 
   44600   0.55338176   -7.2014086   0.66735416 0.0012469248 0.0011030536          599    5.8118371    821.12546    1.0522144 
   44700   0.56906044   -7.2403431   0.66128475 0.0012328202 0.0011032771          614    5.6263711    821.04421    1.0523185 
   44800   0.56199022   -7.2413953   0.66380459 0.0012347556 0.0011034478          626    6.1201619    815.14665     1.059932 
   44900   0.55364044   -7.2699059   0.67065601 0.0012447216 0.0011036966          625    5.5612628    820.13572    1.0534842 
   45000   0.54747442   -7.2253183   0.67755037 0.0012547229 0.0011040827          604    5.4588439    823.51334    1.0491633 
   45100   0.56190958    -7.248943   0.67556844 0.0012482787 0.0011044702          589    5.7388022    819.02362    1.0549146 
   45200   0.53837005   -7.2493868    0.6716344  0.001238264 0.0011047783          587    5.7813328    818.42991    1.0556799 
   45300   0.56406675   -7.2432813   0.66242335  0.001218586 0.0011048651          597    5.5819962    821.38918    1.0518765 
   45400    0.5536469   -7.2733103   0.65619751 0.0012044741 0.0011045444          593    5.4516651    820.64794    1.0528266 
   45500    0.5476441   -7.2878527   0.65902583  0.001207007 0.0011042323          615    5.6722016    816.98828    1.0575427 
   45600   0.56036602   -7.2417136   0.67078527 0.0012258503  0.001104153          610    5.6600277    820.19159    1.0534124 
   45700   0.54715541   -7.2659922   0.68571049 0.0012503838 0.0011043774          598    5.5189263    820.04286    1.0536035 
   45800   0.54240286   -7.2434381   0.68310491 0.0012429129 0.0011047344          590    5.7603946    818.87214    1.0551098 
   45900    0.5665085   -7.2278075   0.68812447 0.0012493182 0.0011051367          617    5.5081425    823.08675    1.0497071 
   46000   0.56899879   -7.2680274   0.67569791 0.0012240904 0.0011053438          618    5.6942709    818.55887    1.0555136 
   46100   0.55580787   -7.2981456   0.67534117 0.0012207903 0.0011052665          600    5.4842177     818.9037    1.0550691 
   46200   0.56989123   -7.2647745   0.68196792 0.0012301008 0.0011053471          624    5.9323321    815.86771    1.0589952 
   46300   0.54480664   -7.2967833   0.67603636 0.0012167681 0.0011053703          600    5.2746901    821.13368    1.0522038 
   46400   0.55931722   -7.2552247   0.67827769 0.0012181711 0.0011052197          613     5.830112    817.27448    1.0571724 
   46500   0.54626312   -7.2443326   0.68496581 0.0012275373 0.0011052747          615    5.7650093    818.93511    1.0550286 
   46600   0.53069571   -7.2786861   0.68149365 0.0012186939 0.0011052726          616    5.5474131    819.08543     1.054835 
   46700   0.55591055   -7.2478048   0.68302923 0.0012188244 0.0011052581          622    5.8379145    817.77168    1.0565296 
   46800   0.54369112   -7.2405495   0.68438018 0.0012186257 0.0011052603          609    5.8183938    818.50153    1.0555875 
   46900   0.54409609   -7.2759627   0.67836528 0.0012053399 0.0011051212          594    5.5034814    820.07753    1.0535589 
   47000   0.56414454   -7.2384108   0.68236159  0.001209861 0.0011048949          594    5.8653741    818.62974    1.0554222 
   47100   0.55822148   -7.2706333   0.68555903 0.0012129494 0.0011047684          621     5.447894    820.98704    1.0523918 
   47200   0.52817186   -7.2683122   0.67522652 0.0011921372 0.0011045397          606     5.832031    816.33331    1.0583912 
   47300   0.53016893   -7.2995573   0.68887168 0.0012136569 0.0011042572          594    5.0405439    823.74054     1.048874 
   47400   0.54406908   -7.2314605   0.68867228 0.0012107459 0.0011041451          626    5.9981222    816.93015     1.057618 
   47500   0.55817405   -7.2559665   0.69555569 0.0012202731 0.0011041382          628    5.5661125    820.51867    1.0529925 
   47600   0.55232065   -7.2769887   0.70198613 0.0012289673 0.0011042325          647    5.5859836     818.6718     1.055368 
   47700    0.5226468   -7.3005325   0.69736411  0.001218316 0.0011042902          627    5.6809841    815.90303    1.0589494 
   47800   0.54076602   -7.2607595   0.68302243 0.0011907643 0.0011040562          650    5.8784467    816.43412    1.0582605 
   47900   0.55961961   -7.2669288   0.67829559 0.0011800549 0.0011035667          647    5.8455165    816.44644    1.0582446 
   48000   0.57886139    -7.295099   0.68492098 0.0011890989 0.0011030771          669    5.3300303    820.81897    1.0526073 
   48100    0.5722486   -7.2623812   0.69566161 0.0012052349 0.0011028317          616    5.6772771    818.85806    1.0551279 
   48200   0.53189137    -7.255946   0.69750459 0.0012059208 0.0011026193          639    6.0021681    814.90561    1.0602455 
   48300   0.56745981   -7.2807044   0.71023303 0.0012253848 0.0011026353          657    5.6109537    818.50476    1.0555834 
   48400   0.56882622   -7.2654088   0.71952884 0.0012388582 0.0011029476          640    5.8528885    816.86146    1.0577069 
   48500   0.54270342   -7.3026933   0.71460404  0.001227842  0.001103175          636    5.4814454    818.16834    1.0560174 
   48600   0.53379185   -7.2906164   0.71618096 0.0012280195 0.0011033725          640    5.8050755    815.02467    1.0600906 
   48700   0.56132995   -7.2684719   0.72229062 0.0012359524 0.0011035736          619    5.8872187    816.27291    1.0584695 
   48800    0.5252081   -7.2584325    0.7200296 0.0012295587 0.0011038802          630     5.472885     820.9641    1.0524212 
   48900   0.57041286   -7.2460109   0.72133873 0.0012292753 0.0011040512          623    5.9887022    816.49408    1.0581828 
   49000   0.55438389   -7.2910207   0.72611267 0.0012348855 0.0011043025          626    5.5190337    818.79599    1.0552079 
   49100   0.53949319   -7.2711719   0.71860016 0.0012196201 0.0011044791          637    5.6661893    818.08123    1.0561298 
   49200   0.54512889   -7.2825396   0.71396464 0.0012092897 0.0011044664          639    6.1313284     812.1868    1.0637947 
   49300   0.54631655   -7.2868536   0.71538262 0.0012092336 0.0011044131          634    5.3756968    820.35546     1.053202 
   49400   0.56355335   -7.2890472   0.71952264 0.0012137696 0.0011043602          629    5.5530894    818.76475    1.0552482 
   49500   0.56094061   -7.3143707   0.71461423 0.0012030543 0.0011042771          609    5.8653948     813.3028     1.062335 
   49600   0.55833701    -7.301038   0.72336605 0.0012153327 0.0011042381          611    5.3326563    820.13016    1.0534913 
   49700   0.55759758   -7.2539045   0.71591545 0.0012003948 0.0011041306          604    6.1394376     814.0718    1.0613314 
   49800   0.54803558   -7.2879227   0.71357275 0.0011940642  0.001103917          647    5.5505841    818.35399    1.0557778 
   49900    0.5607649   -7.2927868   0.71819871 0.0011993966 0.0011036928          658    5.7590143    815.80395     1.059078 
   50000   0.58758479   -7.2739671   0.70996038 0.0011832673 0.0011033786          653    5.5465876     819.8326    1.0538737 
   50100      0.56325   -7.2725646   0.70917651 0.0011796016 0.0011029459          659    5.6358814    818.97766    1.0549738 
   50200     0.555219   -7.2907901   0.71461309 0.0011862767 0.0011024835          673      5.76692    815.60356    1.0593382 
   50300   0.55340835   -7.2653721   0.71796024 0.0011894636 0.0011021967          654    5.7756747    817.19423    1.0572762 
   50400   0.53649565   -7.2263858   0.72351167 0.0011962825 0.0011019511          641    5.7037282    820.33879    1.0532234 
   50500   0.57045863   -7.3111186   0.73393534 0.0012111144  0.001101846          666    5.4760355    817.96452    1.0562805 
   50600   0.56285576   -7.2813087   0.73411131 0.0012090107 0.0011018467          649    5.8759627    815.39423    1.0596101 
   50700    0.5821333   -7.2548879   0.72646126  0.001194052 0.0011016892          656    5.6105605    820.25718    1.0533282 
   50800   0.55756819   -7.2680276   0.72337317 0.0011866358 0.0011013853          664    5.8661242    816.32099    1.0584072 
   50900   0.55249644   -7.2900489   0.71327362 0.0011677695 0.0011009719          678    5.6114539    817.37685      1.05704 
   51000   0.55371878   -7.2994178   0.71847795 0.0011739836 0.0011003971          675    5.7619324     815.3901    1.0596155 
   51100   0.54901289   -7.2786303   0.72537913 0.0011829405 0.0011000066          657    5.9028826    815.23185    1.0598212 
   51200    0.5797221   -7.2941079   0.72223677 0.0011755156 0.0010996312          665    5.6411432    817.39669    1.0570143 
   51300    0.5475228   -7.3009506   0.71187617  0.001156394 0.0010990235          658    5.5237732    818.14049    1.0560533 
   51400   0.51917216   -7.3018186   0.70310832 0.0011399292 0.0010981838          670      5.88559    813.43379    1.0621639 
   51500   0.54552809   -7.3012745   0.71614421 0.0011588094 0.0010974161          689    5.5474777    817.61103    1.0567372 
   51600    0.5430656   -7.2442247    0.7230714  0.001167751 0.0010968682          680    5.8821341    817.23242    1.0572268 
   51700   0.53520489   -7.2794313   0.71835451 0.0011578893 0.0010963295          669    5.5183181    819.54102    1.0542486 
   51800   0.52538251   -7.2714091   0.70983994 0.0011419561 0.0010955104          674    5.7446287    816.93954    1.0576058 
   51900    0.5894725   -7.3113703   0.70149164 0.0011263514  0.001094549          675    5.5119024    817.94763    1.0563023 
   52000   0.53348749   -7.2856822   0.71395926 0.0011441655 0.0010936236          671    5.6834659    817.03615    1.0574807 
   52100   0.55618591   -7.2923173   0.70935683 0.0011346078 0.0010927261          653    5.3341758    820.72647    1.0527259 
   52200   0.57544656   -7.2383282    0.7086153 0.0011312505 0.0010918055          650    6.1313126    815.44604    1.0595428 
   52300   0.54863572   -7.3206069    0.7150181 0.0011392895  0.001090924          674    5.1819688    820.96949    1.0524143 
   52400   0.55264046   -7.2595979   0.72072681  0.001146194 0.0010901755          674    6.0299748    815.20385    1.0598576 
   52500   0.54788451   -7.2887498     0.707136 0.0011224381 0.0010892763          678    5.3291436    820.83514    1.0525865 
   52600   0.52606737   -7.2786309   0.70603565 0.0011185609  0.001088215          660    6.0753925    813.22986    1.0624302 
   52700   0.56141531   -7.3036154   0.71663512 0.0011331991 0.0010872828          677    5.5366643    818.10246    1.0561024 
   52800   0.53937929   -7.2674177   0.71396512 0.0011268389  0.001086349          668    5.8094585    816.68378     1.057937 
   52900   0.58306557    -7.273755   0.71718351 0.0011297787 0.0010854716          657    5.6968484    817.96337     1.056282 
   53000   0.54968785   -7.2829161   0.71918642 0.0011307962 0.0010846879          656    5.5896352    818.36883    1.0557587 
   53100   0.53230336   -7.2862468   0.70539962 0.0011070302 0.0010836244          673    5.9070458    814.41553    1.0608835 
   53200   0.54874131   -7.2730552   0.71097148 0.0011136771 0.0010825127          679    5.7770304    817.00726    1.0575181 
   53300   0.53650954   -7.2788364   0.72284169 0.0011301465 0.0010815991          668    5.6931695    817.04701    1.0574667 
   53400    0.5607295   -7.2826446   0.72019705  0.001123903 0.0010807695          670    5.8055825    815.88685    1.0589704 
   53500   0.57701945    -7.300777    0.7258413 0.0011305939 0.0010799582          668    5.2645136    821.34841    1.0519287 
   53600   0.54503981   -7.2806683   0.72290914 0.0011239259 0.0010791107          659     5.962242    814.24469    1.0611061 
   53700   0.54849619   -7.3152776   0.72626937 0.0011270474 0.0010782833          687    5.2312604    820.35947    1.0531968 
   53800    0.5574834   -7.2079382   0.73445705 0.0011376348 0.0010775335          690     6.292011     815.6294    1.0593046 
   53900   0.53237241   -7.2737753   0.73504095 0.0011364269 0.0010768878          663     5.210491    823.32424    1.0494043 
   54000   0.52507606   -7.2756228   0.73470227 0.0011337998 0.0010761773          679    5.7725909     816.3453    1.0583757 
   54100   0.54383949    -7.282669   0.72872881 0.0011225028 0.0010754095          672    5.7773981    816.62645    1.0580113 
   54200   0.54969682   -7.2524295   0.73503508 0.0011301277 0.0010746247          670    5.7547169    818.31327    1.0558304 
   54300   0.55655575   -7.2745535   0.74460352  0.001142731 0.0010740743          678     5.637576    818.91536    1.0550541 
   54400   0.54370267   -7.2750388    0.7379214 0.0011303943 0.0010734071          664    5.8745533    815.96299    1.0588716 
   54500   0.51933767   -7.2891853   0.72717652 0.0011118907 0.0010725963          651    5.5508741    818.28575    1.0558659 
   54600   0.54891528   -7.2789451   0.73130609  0.001116157 0.0010716722          676    5.5692863    819.27318    1.0545933 
   54700   0.54179922   -7.2853844   0.74293238 0.0011318287 0.0010708998          680    5.5861834    818.53286    1.0555471 
   54800   0.54757651   -7.2945953   0.74422481 0.0011317287 0.0010702815          679    5.7554751    815.90871     1.058942 
   54900   0.52162891   -7.2451287   0.74490403 0.0011306983 0.0010695977          666    5.6651751    819.94283     1.053732 
   55000   0.54319537   -7.2620502   0.73650875 0.0011159223 0.0010688568          644    5.8359929    817.27843    1.0571673 
   55100   0.52687648   -7.3268202   0.73600883  0.001113141 0.0010679868          678    5.3764964      817.827    1.0564581 
   55200   0.53894833   -7.2779385   0.73530373   0.00111006 0.0010671225          684    5.8903658    815.00021    1.0601224 
[...]
   89600    0.5686546   -7.6194275    1.0533018 0.0009796334 0.00089137559          861    5.6713103    797.49034    1.0833987 
   89700   0.54432843   -7.6283202    1.0479241 0.00097354524 0.0008911468          863    5.7550205    795.76972    1.0857412 
   89800   0.54529542   -7.6385759     1.056123 0.00098006956 0.00089091286          860    5.6326209    796.46263    1.0847967 
   89900   0.57274275   -7.6060349    1.0613376 0.00098381311 0.00089075112          864    5.7322783    797.79497     1.082985 
   90000   0.56266744   -7.6415486    1.0516967 0.00097379328 0.00089053497          864    5.4486787    798.67148    1.0817965 
   90100   0.55293298   -7.6426779    1.0492076 0.00097041032 0.00089028282          862    5.5819795     796.8496    1.0842698 
   90200   0.57824885    -7.613239     1.037719 0.00095872046 0.00088996432          864    5.9939119    794.75873    1.0871224 
   90300   0.57850912   -7.6139656    1.0440362 0.00096348852 0.00088965141          861     5.345063    801.43469    1.0780666 
   90400   0.55831518   -7.6500148    1.0523366 0.00097007432 0.00088937555          863    5.4522213      797.928    1.0828045 
   90500   0.53149059   -7.6142275    1.0598964 0.00097596356 0.00088915652          863    6.1315279    792.52986    1.0901797 
   90600   0.54380644   -7.6495494    1.0627405 0.0009775023 0.00088897059          862    5.2617034    799.88245    1.0801587 
   90700   0.56275281   -7.6122952    1.0500055 0.00096472389 0.00088870929          862    5.6508536    798.05923    1.0826264 
   90800    0.5338367   -7.6157978    1.0613239 0.0009740491 0.00088845812          863    5.8546982    795.40324    1.0862415 
   90900   0.54562202   -7.6520187    1.0524702 0.00096486083 0.0008882252          862    5.3948831    798.14852    1.0825053 
   91000   0.55800162   -7.5589224    1.0427554 0.00095490421 0.00088789142          860    6.6199302     790.9974    1.0922918 
   91100   0.55060466   -7.6526939    1.0460099 0.00095683305 0.00088756302          861    4.9249477    802.99799    1.0759678 
   91200   0.54331918   -7.5967337    1.0410163 0.00095122101 0.0008872043          862    6.0148507    794.81967     1.087039 
   91300   0.54063235   -7.6659026    1.0367735 0.00094630659 0.00088681852          862       5.3298    797.96314    1.0827568 
   91400    0.5581277   -7.6244037    1.0320382 0.00094095383 0.00088638289          864    5.7710677    796.17989    1.0851819 
   91500   0.56021717   -7.6193771    1.0276994 0.00093597394 0.00088593681          863    5.9918605    793.84399    1.0883751 
   91600    0.5377489   -7.6374735     1.039378 0.00094557682 0.00088548702          862    5.1782548    801.16517    1.0784293 
   91700     0.570304   -7.5891173    1.0481255  0.000952495 0.00088513126          863    5.9422258    796.36402     1.084931 
   91800   0.55269856   -7.6215929    1.0542688 0.00095703415 0.00088480602          864    5.7284498    796.42659    1.0848457 
   91900   0.55708414   -7.6456435    1.0448915 0.00094748955 0.00088446741          864    5.5374214    797.25689    1.0837159 
   92000   0.52544789   -7.6443798    1.0455351 0.00094704262 0.00088407978          864      5.63004     796.0762    1.0853232 
   92100   0.55570433   -7.6430134    1.0509763 0.00095093764 0.00088371116          864     5.334577    799.67651    1.0804369 
   92200   0.56960533   -7.6106532     1.048125 0.00094732921 0.00088335458          861     6.119438    793.41622    1.0889619 
   92300   0.52739982   -7.6231396    1.0405029 0.00093942119 0.00088296331          861    5.5609559    798.02934     1.082667 
   92400   0.56307513   -7.6419033    1.0587493 0.00095486048 0.00088259415          862    5.3372379    799.57714    1.0805712 
   92500   0.58665991   -7.5557238    1.0541917 0.00094972227 0.00088226197          864    6.0369929    797.81569    1.0829569 
   92600    0.5711991   -7.6199231    1.0688734 0.00096190908 0.00088199422          863    5.3208971      801.246    1.0783205 
   92700   0.53939721   -7.6069925    1.0658538 0.00095815696 0.00088173679          861    5.8548033    795.88173    1.0855884 
   92800   0.54314639     -7.62329    1.0581569 0.00095021275 0.00088143628          862    5.8126012    795.41738    1.0862222 
   92900   0.54189849   -7.6510762    1.0605981 0.00095137968 0.00088110001          863    5.7145323    794.87549    1.0869627 
   93000   0.53577836   -7.5912566    1.0631987 0.00095268698 0.00088081631          862    5.6552944    799.42012    1.0807834 
   93100   0.54142242   -7.6218447    1.0511932 0.00094091766 0.0008804529          861    5.5494546    798.56447    1.0819415 
   93200   0.54399344   -7.6019355     1.049759 0.00093862568 0.00088005789          862    6.1431448    793.25284    1.0891861 
   93300   0.55103522   -7.5819417    1.0504675 0.00093825251 0.00087965386          864    5.5391679     800.6467    1.0791277 
   93400   0.54619662   -7.6249593    1.0563978 0.00094253909 0.00087927091          864    5.4780518    798.83116    1.0815802 
   93500   0.52129668   -7.5968539    1.0598904 0.00094464382 0.00087893222          862    6.0711796    794.11643    1.0880017 
   93600    0.5515322   -7.6356509    1.0544198 0.00093876405 0.00087855008          861    5.1002307    802.23318    1.0769936 
   93700   0.55694088   -7.6138811    1.0504511 0.00093423257 0.00087816435          863     6.065701    793.55835    1.0887668 
   93800     0.559415   -7.6482444    1.0455942 0.00092892167 0.00087774466          864    5.5298952    797.58144     1.083275 
   93900   0.56230315   -7.5945686    1.0438494 0.00092638387 0.00087727784          864     5.825646    797.47995    1.0834128 
   94000   0.56355417   -7.6356156    1.0481605 0.00092922026 0.00087683029          862    5.7581423    795.81139    1.0856844 
   94100   0.54887799   -7.6414074     1.031968 0.00091389299 0.00087633622          864    5.7883981       794.85    1.0869975 
   94200   0.57442082   -7.6172849    1.0438053 0.00092339462 0.00087580509          863    5.5146953    799.10123    1.0812147 
   94300    0.5551587   -7.6238326    1.0536688 0.00093113182 0.00087537657          864    5.7009114    796.70725    1.0844636 
   94400   0.55171689   -7.6396869    1.0586234 0.00093451924 0.00087497833          859    5.6080226    796.70352    1.0844687 
   94500    0.5620003   -7.5952649      1.05562 0.00093088186 0.00087456909          861    5.4827268    800.70594    1.0790478 
   94600   0.56672255   -7.5933164    1.0536821 0.00092819068 0.00087415906          859    6.0498555    794.83638    1.0870162 
   94700   0.55098167   -7.6420252    1.0506315 0.00092452614 0.0008737449          861    5.4921379    797.94171    1.0827859 
   94800   0.55251343    -7.651397    1.0514133 0.00092423814 0.00087327691          864     5.425265    798.16656    1.0824808 
   94900   0.55757185   -7.6013783    1.0529902 0.00092464895 0.00087282244          862    5.9416781    795.79781    1.0857029 
   95000   0.57279229   -7.6187167    1.0607846 0.00093051282 0.00087241396          861    5.3619871    800.94282    1.0787287 
   95100   0.55389926   -7.6339816    1.0551665 0.0009246114 0.00087199244          864    5.8903613    794.19062       1.0879 
   95200   0.57117598    -7.656352    1.0572037 0.00092542336 0.00087155529          863    5.4411983    797.70301    1.0831099 
   95300   0.55544782   -7.5826082    1.0530142 0.00092078893 0.00087112379          863    6.0767908    795.36888    1.0862884 
   95400   0.58894683   -7.5889259    1.0459868 0.0009136852 0.00087064813          864    5.7735029    798.19313    1.0824448 
   95500   0.55162112   -7.6242992    1.0509762 0.00091708224 0.00087013433          864     5.669049    797.28021    1.0836842 
   95600   0.55391165   -7.6389486    1.0480413 0.00091356459 0.00086967307          861    5.6720602    796.27832    1.0850477 
   95700    0.5618478   -7.5866684    1.0504262 0.00091468672 0.00086919276          862    5.8257497    797.84267    1.0829203 
   95800     0.571474   -7.6382236    1.0537775 0.00091664711 0.00086869922          864    5.4815322    798.50061     1.082028 
   95900   0.54697434   -7.6064382    1.0515488 0.00091375462 0.00086823696          863    6.2238442    792.34353    1.0904361 
   96000   0.58168175   -7.6450886    1.0495773 0.00091109139 0.00086775002          863     5.423545    798.95103     1.081418 
   96100   0.52363208   -7.5756294    1.0370957 0.00089931986 0.00086720279          861    6.2083526    794.04534    1.0880991 
   96200   0.55520081   -7.6435816    1.0434312 0.00090387314 0.00086665112          862    5.3979596    798.68985    1.0817716 
   96300    0.5587472   -7.6369511    1.0273601 0.00088902739 0.00086606416          864      6.20504    790.94581    1.0923631 
   96400   0.54056761    -7.650071     1.041708 0.00090050827 0.00086546124          863    5.3861429    798.26532    1.0823469 
   96500   0.55248749    -7.598235    1.0502152 0.00090692159 0.0008649359          863    6.0478761    794.54431    1.0874158 
   96600   0.55614828   -7.6281505    1.0630403 0.00091704646 0.0008644721          863    5.5725587    797.76389    1.0830272 
   96700   0.55046278   -7.6377391    1.0619618 0.00091516875 0.00086403916          860    5.5207268     798.1254    1.0825367 
   96800   0.55545321   -7.6457816    1.0594297 0.00091204343 0.0008635738          864    5.7866302     794.8528    1.0869937 
   96900   0.56677285   -7.6172143    1.0537843 0.00090624724 0.00086311173          861    5.6737612    797.59886    1.0832513 
   97000   0.56038094   -7.6297134    1.0530233 0.0009046592 0.0008626272          863     5.377665    800.10113    1.0798635 
   97100   0.55245712   -7.6315604    1.0439425 0.00089593414 0.00086206247          863    6.0412855    792.87003     1.089712 
   97200   0.55056383   -7.6510317     1.043389 0.00089453787 0.00086150811          863    5.3692917    798.34341     1.082241 
   97300   0.54322705    -7.594588    1.0478765 0.00089746184 0.00086095643          863    5.8287285    796.87857    1.0842304 
   97400   0.54371186   -7.6642815    1.0345687 0.00088515462 0.00086037914          862    5.5246014    796.10305    1.0852866 
   97500   0.53504682   -7.6167845    1.0517625 0.00089894234 0.00085980399          864    5.7687338     796.2318    1.0851111 
   97600   0.55695869   -7.6275107    1.0419718 0.00088966169 0.00085925412          863    5.5455306    798.11787    1.0825469 
   97700   0.53691969   -7.6119393    1.0477491 0.00089367882 0.00085868337          864    5.6534051    797.87044    1.0828826 
   97800   0.55255624   -7.6317835    1.0413352 0.00088729989 0.00085810895          862    5.8156098     794.9776    1.0868231 
   97900   0.57260424      -7.6733    1.0443551 0.00088896417  0.000857519          862    5.5864356    795.36504    1.0862937 
   98000   0.58109725   -7.6364026    1.0550341 0.00089713782 0.00085697272          860    5.7759009    795.47313     1.086146 
   98100   0.56068177   -7.6278574    1.0524874 0.00089405995 0.00085645695          863    5.7516464    796.13634    1.0852412 
   98200   0.52012738   -7.6174099    1.0462946 0.00088789425 0.00085589809          863    5.9237024    794.46385    1.0875259 
   98300    0.5537473    -7.650184    1.0368376 0.00087897386 0.00085528587          862    5.5258225    797.29968    1.0836578 
   98400   0.54264572   -7.6079355    1.0430492 0.00088334115 0.00085468231          862    5.5253611     799.3435     1.080887 
   98500   0.55813197   -7.6154744     1.032399  0.000873434 0.0008540489          864    6.0304415    793.62138    1.0886803 
   98600   0.53037245   -7.6368329    1.0420384 0.00088069506 0.00085342338          864    5.6099298    796.62692    1.0845729 
   98700     0.529744   -7.6005748    1.0547538 0.00089053851 0.00085285768          861    5.3765287    800.99873    1.0786534 
   98800    0.5532604   -7.5919365    1.0484483 0.00088431876 0.00085230577          860    6.0709508    794.76391    1.0871153 
   98900   0.53689859   -7.6663549    1.0517931 0.00088624292 0.00085175659          860    5.3689666    797.39491    1.0835284 
   99000   0.53673339   -7.6251609    1.0560373 0.00088892029 0.00085120457          861    5.6986457    796.37516    1.0849158 
   99100   0.54486376   -7.6048383     1.057454 0.00088921459 0.00085068034          860    5.6923039    797.66842    1.0831568 
   99200   0.54483382   -7.5919857    1.0518671 0.00088362489 0.00085013917          862    5.5482415    799.90102    1.0801336 
   99300   0.54404589   -7.6290081    1.0458921 0.00087772081 0.0008495519          863    5.9707883    793.38867    1.0889997 
   99400   0.55429238   -7.6165287    1.0368805 0.00086928281 0.00084893123          863    5.8521545    795.55551    1.0860336 
   99500   0.55326041   -7.6267255    1.0454628 0.00087559694 0.00084831636          863    5.4463023    799.23554     1.081033 
   99600   0.54359083   -7.6419986    1.0450156 0.0008743437 0.00084769197          861    5.6265254    796.42491     1.084848 
   99700   0.55703245   -7.6011536    1.0506735 0.00087819581 0.00084710654          863    5.9903365    795.29853    1.0863845 
   99800   0.57210012   -7.6277111    1.0569853 0.00088258624 0.00084656102          863     5.424754    799.74686    1.0803419 
   99900   0.54517542    -7.634651    1.0517389 0.00087732645 0.00084600171          863     5.791372    795.22641     1.086483 
  100000   0.53747242   -7.6016381    1.0592101 0.00088267507 0.00084544333          863    5.8878981    796.04127    1.0853709 
  100100   0.55414764   -7.5935656    1.0565922 0.0008796139 0.00084490251          863     5.693087    798.60868    1.0818816 
  100200   0.53751398    -7.605941    1.0457114 0.00086968678 0.00084432704          863    5.8070377    796.37627    1.0849143 
  100300   0.52558637   -7.6322201    1.0411018 0.00086498986 0.00084367984          861    5.5933769    796.98815    1.0840814 
  100400   0.54163539   -7.5902047    1.0468105 0.00086886663 0.00084305596          862    6.2065815    793.07983    1.0894237 
  100500    0.5137769    -7.624987    1.0515277 0.00087191354 0.00084246768          861     5.226848    800.96237    1.0787024 
  100600    0.5479244    -7.587521    1.0381226 0.00085994247 0.00084182739          862     6.339722    791.94404    1.0909862 
  100700   0.55969537   -7.6192528    1.0452204 0.00086496229 0.00084118503          864    5.6184797    797.99101     1.082719 
  100800   0.54690627   -7.6316059    1.0448787 0.00086382164 0.00084057906          862     5.858874    794.55119    1.0874063 
  100900   0.55386142   -7.6326714     1.055964 0.00087212091 0.00083997005          862    5.7149505    796.11723    1.0852673 
  101000   0.56189662   -7.6343333    1.0502248 0.00086652211 0.00083939946          859    5.5236156    798.12528    1.0825368 
  101100   0.56311027   -7.6147618    1.0483725 0.00086413825 0.00083876692          863    5.7091633    797.38498    1.0835419 
  101200   0.54344739   -7.6435043    1.0485166 0.00086340296 0.00083815921          864    5.7836738    794.76145    1.0871187 
  101300   0.56616524   -7.6499587    1.0512742 0.00086481921 0.00083754635          863    5.6840352    795.58481    1.0859936 
  101400   0.55087074   -7.6296436    1.0438332 0.00085785105 0.00083692617          862     5.703559    796.34736    1.0849537 
  101500   0.57619047   -7.5940819    1.0375987 0.0008518873 0.00083627217          863    5.8161539    797.59936    1.0832506 
  101600    0.5403063   -7.6001736    1.0416804 0.00085439665 0.0008356037          862    5.7394833    797.53432     1.083339 
  101700    0.5197837    -7.618279    1.0474018 0.00085824464 0.00083495345          862    5.5707278    797.99256    1.0827169 
  101800   0.53702039   -7.6025197    1.0619872 0.00086934122 0.00083436683          862    5.9244523    795.59143    1.0859845 
  101900   0.57966432   -7.6691573    1.0561319 0.00086369962 0.00083380568          863    5.4498693    797.15068    1.0838603 
  102000   0.54922499   -7.6726771    1.0461794 0.00085472174 0.00083320706          864    5.6827873    793.95781     1.088219 
  102100   0.54923008   -7.6583242    1.0566152 0.00086240221 0.00083258984          862    5.3111286    798.82417    1.0815897 
  102200   0.58014128   -7.6201066    1.0474491 0.00085408438 0.00083198192          861    5.7821602    796.37093    1.0849216 
  102300   0.54910121   -7.6448827    1.0417415 0.00084860011 0.00083133492          864    5.3632436      798.946    1.0814248 
  102400   0.55104969   -7.6282085    1.0472467 0.00085225152 0.00083066515          863    5.8667483    794.72111    1.0871738 
  102500   0.55717196   -7.6274458    1.0502131 0.00085383181 0.00083003727          860    5.6103874    797.61024    1.0832358 
  102600   0.54181669   -7.6236661    1.0423518 0.00084661449 0.00082938693          861    5.5397948    798.33115    1.0822577 
  102700   0.53943928   -7.6315212    1.0481834 0.00085052208 0.00082872442          860    6.0827741    792.23343    1.0905877 
  102800   0.55894649   -7.6644621     1.056095 0.00085610816 0.00082809907          863    5.4578204    797.03091    1.0840232 
  102900    0.5559479   -7.5785834    1.0715061 0.00086775683 0.00082755205          863    6.2225481    793.95534    1.0882224 
  103000   0.57936174   -7.6320601     1.067331 0.00086353637 0.00082701938          864    5.3658011    799.89537    1.0801413 
  103100   0.53886308    -7.589755    1.0592735 0.00085618612 0.00082645674          863    6.1796239    793.64195    1.0886521 
  103200   0.56073168    -7.654708    1.0557377 0.00085250137 0.00082584589          861    5.3971374      798.209    1.0824233 
  103300   0.57483598   -7.6067243    1.0476492 0.00084515102 0.00082522571          862    5.5923438    798.94349    1.0814282 
  103400   0.55443359   -7.6449023    1.0365379 0.00083537871 0.00082453825          862    5.5204785    797.11725    1.0839058 
  103500   0.53050817   -7.6241118    1.0474375 0.0008433474 0.00082385865          862    5.8156947     795.2698    1.0864237 
  103600   0.57084625   -7.6205756    1.0513617 0.00084568992  0.000823228          863    5.7196335    796.63875    1.0845568 
  103700   0.55366889   -7.5990383    1.0518289 0.00084524987 0.00082259065          861    5.9494722    795.50845    1.0860978 
  103800    0.5579654   -7.6732389    1.0536694 0.00084591313 0.00082196205          862     5.546331    795.62526    1.0859384 
  103900   0.54970792   -7.6136714     1.053252 0.00084476416 0.00082133504          859    5.8446183    795.74152    1.0857797 
  104000   0.56756918   -7.6209675    1.0474527 0.00083930502 0.00082070612          864    5.4915414    799.19469    1.0810883 
Loop time of 197.632 on 12 procs for 100000 steps with 864 atoms

Performance: 87435.243 tau/day, 505.991 timesteps/s
99.4% CPU use with 12 MPI tasks x no OpenMP threads

MPI task timing breakdown:
Section |  min time  |  avg time  |  max time  |%varavg| %total
---------------------------------------------------------------
Pair    | 10.084     | 10.961     | 11.844     |  16.0 |  5.55
Neigh   | 0.91801    | 0.94128    | 0.9693     |   1.7 |  0.48
Comm    | 7.6001     | 8.4541     | 9.4915     |  20.1 |  4.28
Output  | 2.7588     | 2.7597     | 2.7673     |   0.1 |  1.40
Modify  | 171.93     | 172.31     | 173.23     |   2.8 | 87.19
Other   |            | 2.202      |            |       |  1.11

Nlocal:        72.0000 ave          75 max          68 min
Histogram: 1 0 2 0 3 1 0 1 2 2
Nghost:        1655.92 ave        1674 max        1636 min
Histogram: 1 0 3 1 0 1 3 0 1 2
Neighs:        8841.42 ave        9695 max        8191 min
Histogram: 2 0 3 0 3 0 2 1 0 1
FullNghs:      17683.3 ave       18494 max       16750 min
Histogram: 1 0 2 3 0 1 1 1 1 2

Total # of neighbors = 212200
Ave neighs/atom = 245.60185
Neighbor list builds = 4079
Dangerous builds = 0

#clear
#
#next RN
#
#jump SELF



Total wall time: 0:03:18
