
units lj                  # Use reduced LJ style units
atom_style atomic         # Uncharged point particles
atom_modify map hash      # Needed for indexing of clusters etc
                          # Used to be able to find where atoms are in relation to each other.

# Define a lattice with which to populate the simulation cell. With units
# set to 'lj' the second argument to the lattice command is the reduced
# density rho* and the spacings are multiples of that required to acheive
# that density. Also define a simulation cell called 'box' in lattice units
# and fill it with atoms. Here we're creating a box which is ten lattice
# constants in each direction.
lattice fcc 1.0 spacing 1 1 1                 # All equal sizes - gives the right reduced density.
Lattice spacing in x,y,z = 1.5874011 1.5874011 1.5874011

region box block 0 6 0 6 0 6 units lattice # Defines a region, "box", in lattice units
create_box 1 box                              # Creates a simulation box as specified above,
Created orthogonal box = (0.0000000 0.0000000 0.0000000) to (9.5244063 9.5244063 9.5244063)
  2 by 2 by 3 MPI processor grid
                                              # with one type of atom
create_atoms 1 box                            # Creates particles on lattice points
Created 864 atoms
  using lattice units in orthogonal box = (0.0000000 0.0000000 0.0000000) to (9.5244063 9.5244063 9.5244063)
  create_atoms CPU = 0.001 seconds


# Set the mass of the first (and only) atom type.
mass 1 1.0

# Lennard-Jones interactions between particles, 3.5 sigma cut-off. Apply
# long range tail corrections to energy and pressure and set all coefficients
# to unity since we work in reduced units here. Note that this doesn't shift
# the potential such that it goes to zero at the cutoff. That would require
# pair_modify('shift', 'yes').
pair_style lj/cut  3.5      # non-GPU version
pair_modify tail  yes
pair_coeff 1  1  1.0  1.0   # Intearaction between 1 and 1 set with epsilon = 1 and sigma = 1

write_data data.*
System init for write_data ...
Neighbor list info ...
  update every 1 steps, delay 10 steps, check yes
  max neighbors/atom: 2000, page size: 100000
  master list distance cutoff = 3.8
  ghost atom cutoff = 3.8
  binsize = 1.9, bins = 6 6 6
  1 neighbor lists, perpetual/occasional/extra = 1 0 0
  (1) pair lj/cut, perpetual
      attributes: half, newton on
      pair build: half/bin/atomonly/newton
      stencil: half/bin/3d
      bin: standard

#############################
#   M E L T   S Y S T E M   #
#############################

velocity all create 2.4 2750902 mom yes dist gaussian # Assign velocities
                                                    # Temperature 2.4, random number seed, zero linear momentum
						                                                        # Gaussian distribution

timestep 0.002   # simulation timestep
thermo 100       # output thermodynamic data every 100 steps

# Define a fix  in this case with index 1 applied to all
# particles in the simulation. This fix is for simulations
# in the anisotropic NPT ensemble. Note that we use the MTK
# correction.
fix 1 all npt temp 2.4 2.4 0.1 iso 5.68 5.68 0.5 mtk yes tchain 5 pchain 5 # Use NPT ensemble
                                                                         # Set temperature and pressure and damping
                                                                         # Numbers of thermostats in chain and in barostat
run 1000         # run for 10000 steps
Per MPI rank memory allocation (min/avg/max) = 3.633 | 3.633 | 3.634 Mbytes
Step Temp E_pair E_mol TotEng Press Volume 
       0          2.4   -8.3859253            0    -4.790092     -2.24275          864 
     100    1.3007594   -6.4407842            0   -4.4919034    5.3582762    891.69205 
     200    1.5828213   -6.0796178            0   -3.7081338    6.4338598    907.46239 
     300    1.7629056     -5.73851            0   -3.0972122    5.5953229    954.02439 
     400    1.8733232   -5.2785237            0   -2.4717912    6.0585808    994.36537 
     500      2.02574   -4.9360708            0   -1.9009777    5.7478153    1042.8978 
     600    2.2112838   -4.6895875            0   -1.3765009    5.7138268    1079.0368 
     700    2.3146746   -4.4629638            0  -0.99497044    5.6088298    1118.0222 
     800    2.4734008     -4.39503            0   -0.6892229    5.7937797    1123.7282 
     900    2.4206618   -4.2767239            0  -0.64993368    5.5531987    1146.9555 
    1000    2.3618098   -4.2459295            0  -0.70731524    5.7000582    1143.3852 
Loop time of 0.178646 on 12 procs for 1000 steps with 864 atoms

Performance: 967278.569 tau/day, 5597.677 timesteps/s
99.6% CPU use with 12 MPI tasks x no OpenMP threads

MPI task timing breakdown:
Section |  min time  |  avg time  |  max time  |%varavg| %total
---------------------------------------------------------------
Pair    | 0.068775   | 0.077042   | 0.093767   |   2.4 | 43.13
Neigh   | 0.011995   | 0.013067   | 0.014701   |   0.7 |  7.31
Comm    | 0.053727   | 0.072009   | 0.081243   |   2.7 | 40.31
Output  | 0.00017347 | 0.00017974 | 0.0002215  |   0.0 |  0.10
Modify  | 0.014286   | 0.01482    | 0.015325   |   0.2 |  8.30
Other   |            | 0.001528   |            |       |  0.86

Nlocal:        72.0000 ave          80 max          66 min
Histogram: 2 1 2 2 1 0 2 0 0 2
Nghost:        1314.75 ave        1327 max        1295 min
Histogram: 1 0 0 2 3 0 0 1 2 3
Neighs:        6211.67 ave        7136 max        5326 min
Histogram: 2 0 0 2 1 4 1 0 0 2

Total # of neighbors = 74540
Ave neighs/atom = 86.273148
Neighbor list builds = 80
Dangerous builds = 2

# Equilibrate just above the melting temperature to avoid step fn in T

fix 1 all npt temp 1.25 1.25 0.1 iso 5.68 5.68 0.5 mtk yes tchain 5 pchain 5
run 1000
Per MPI rank memory allocation (min/avg/max) = 3.634 | 3.634 | 3.634 Mbytes
Step Temp E_pair E_mol TotEng Press Volume 
    1000    2.3618098   -4.2459295            0  -0.70731524    5.7000582    1143.3852 
    1100    1.8617945   -4.5967525            0    -1.807293    5.9593679    1083.5566 
    1200      1.66126   -5.0091582            0   -2.5201524    5.9308167    1028.0056 
    1300    1.4533368   -5.3154554            0   -3.1379734    5.5185254    997.93023 
    1400    1.3100587   -5.5224566            0    -3.559643    5.2858775     978.0358 
    1500    1.3306301   -5.7450087            0   -3.7513736    5.2687861    956.68836 
    1600    1.2302857    -5.777427            0   -3.9341343     5.385203    950.58576 
    1700    1.2545134   -5.8251615            0   -3.9455694    5.6370291    940.07281 
    1800    1.2669685   -5.8434457            0   -3.9451925    6.1076728    931.13358 
    1900    1.2975362   -5.8185374            0   -3.8744858    5.5765884    942.23221 
    2000    1.2225624   -5.8503078            0   -4.0185867    5.1330896    948.19804 
Loop time of 0.161449 on 12 procs for 1000 steps with 864 atoms

Performance: 1070304.489 tau/day, 6193.892 timesteps/s
99.9% CPU use with 12 MPI tasks x no OpenMP threads

MPI task timing breakdown:
Section |  min time  |  avg time  |  max time  |%varavg| %total
---------------------------------------------------------------
Pair    | 0.070231   | 0.076859   | 0.086399   |   1.7 | 47.61
Neigh   | 0.010255   | 0.010696   | 0.011769   |   0.4 |  6.62
Comm    | 0.047083   | 0.057443   | 0.064182   |   2.1 | 35.58
Output  | 0.00017791 | 0.00018383 | 0.0002222  |   0.0 |  0.11
Modify  | 0.013971   | 0.014478   | 0.014798   |   0.2 |  8.97
Other   |            | 0.00179    |            |       |  1.11

Nlocal:        72.0000 ave          79 max          65 min
Histogram: 1 1 0 4 0 1 1 3 0 1
Nghost:        1466.08 ave        1476 max        1447 min
Histogram: 1 1 0 0 2 0 0 4 1 3
Neighs:        7466.67 ave        8131 max        6694 min
Histogram: 1 0 2 0 3 1 3 0 0 2

Total # of neighbors = 89600
Ave neighs/atom = 103.70370
Neighbor list builds = 67
Dangerous builds = 0


# Small amount of linear quench

fix 1 all npt temp 1.25 ${temp} 0.1 iso 5.68 5.68 0.5 mtk yes tchain 5 pchain 5
fix 1 all npt temp 1.25 0.7 0.1 iso 5.68 5.68 0.5 mtk yes tchain 5 pchain 5
run 2000
Per MPI rank memory allocation (min/avg/max) = 3.634 | 3.634 | 3.634 Mbytes
Step Temp E_pair E_mol TotEng Press Volume 
    2000    1.2225624   -5.8503078            0   -4.0185867    5.1330896    948.19804 
    2100    1.2419895   -5.8672316            0   -4.0064035    5.3991846     941.0679 
    2200    1.2146318   -5.9160621            0   -4.0962231    5.7587996    929.20362 
    2300    1.1767723   -5.9312473            0   -4.1681318    6.3226024     917.8938 
    2400    1.1650375    -5.992536            0   -4.2470023     5.899274    919.65013 
    2500    1.1053796   -6.0047865            0   -4.3486362    5.8732283    917.02633 
    2600    1.0798453   -6.0603511            0   -4.4424578    5.5992123    916.83945 
    2700    1.0621953   -6.1201022            0   -4.5286533    5.5661107    912.76087 
    2800    1.0337999   -6.1463508            0   -4.5974458    5.6573357     908.7925 
    2900    1.0256226   -6.1653587            0   -4.6287055    5.8899992    902.57277 
    3000   0.97334721   -6.2063247            0   -4.7479937    5.4558081    906.67685 
    3100   0.91077106   -6.1933479            0   -4.8287725    5.8498361    899.77417 
    3200   0.92527646   -6.2649053            0    -4.878597    5.9860146    892.07521 
    3300   0.93169229   -6.3178433            0   -4.9219224    6.1114013    885.67801 
    3400   0.87029539   -6.2998877            0   -4.9959555     6.232215    884.98602 
    3500   0.88643325   -6.4431279            0   -5.1150169    5.8807588    879.22273 
    3600   0.85337384   -6.5139221            0   -5.2353429    5.4422211    879.35042 
    3700    0.8009909   -6.5785754            0   -5.3784797    5.2851642    875.45685 
    3800   0.76782977   -6.6151936            0   -5.4647819    5.3914523    871.57724 
    3900   0.72538717   -6.6161598            0   -5.5293384    5.7984624    864.96803 
    4000   0.73524353   -6.6979324            0   -5.5963436    5.7212663    860.09208 
Loop time of 0.341158 on 12 procs for 2000 steps with 864 atoms

Performance: 1013019.644 tau/day, 5862.382 timesteps/s
99.9% CPU use with 12 MPI tasks x no OpenMP threads

MPI task timing breakdown:
Section |  min time  |  avg time  |  max time  |%varavg| %total
---------------------------------------------------------------
Pair    | 0.15687    | 0.16902    | 0.18215    |   2.0 | 49.54
Neigh   | 0.016668   | 0.017501   | 0.018475   |   0.4 |  5.13
Comm    | 0.10706    | 0.12014    | 0.13193    |   2.4 | 35.21
Output  | 0.00036522 | 0.000377   | 0.00045261 |   0.0 |  0.11
Modify  | 0.028471   | 0.029477   | 0.030181   |   0.3 |  8.64
Other   |            | 0.004647   |            |       |  1.36

Nlocal:        72.0000 ave          75 max          69 min
Histogram: 2 1 0 1 0 4 1 0 1 2
Nghost:        1574.25 ave        1585 max        1558 min
Histogram: 1 0 1 2 1 0 0 3 3 1
Neighs:        8300.50 ave        9068 max        7791 min
Histogram: 3 2 0 1 1 1 2 1 0 1

Total # of neighbors = 99606
Ave neighs/atom = 115.28472
Neighbor list builds = 108
Dangerous builds = 0

#############################
# F R E E Z E  S Y S T E M  #
#############################

# Define solid atoms. This closely follows ten Wolde  Ruiz-Montero and Frenkel  Faraday Discuss  1996  104  93-110
# Compute components of the per-atom q6 vector
compute q6 all orientorder/atom degrees 1 6 components 6 nnn NULL cutoff 1.3 # compute the Q6 parameter.
                                                                             # Use all neighbours within 1.3 unit cell.

# get number of connections
compute coord_number all coord/atom orientorder q6 0.5

# An atom is solid if it has 8 or more connections (of a possible 14)
variable is_solid atom c_coord_number>=8
group solid dynamic all var is_solid    # Must be dynamic to update
dynamic group solid defined

# do clustering
compute cluster solid cluster/atom 1.3 # Create a cluster where all atoms within are solid and max 1.3 units from another member

# define chunks one chunk per cluster
compute clus_chunks solid chunk/atom c_cluster nchunk every compress yes  # Says which atoms are in which chunk

# count the size of each chunk
compute size_chunks solid property/chunk clus_chunks count


# Find the maximum entry in the vector of chunk sizes
variable max_n equal max(c_size_chunks)


# Thermo style which includes this variable
# thermo_style custom step temp pe vol v_max_n

thermo ${N}  # Print the thermo information every 100 steps
thermo 100  

# Reset the npt fix at a lower temperature (below freezing)

compute myRDF all rdf 100
fix 2 all ave/time 1 50 100 c_myRDF[*] file pcf.rdf mode vector


compute msd all msd com yes
variable twopoint equal c_msd[4]/6/(step*dt+1.0e-6)
fix 9 all vector 10 c_msd[4]
variable fit equal slope(f_9)/6/(10*dt)
thermo_style custom step temp pe c_msd[4] v_twopoint v_fit v_max_n press vol density


fix 1  all npt temp  ${temp} ${temp}  0.1  iso  5.68  5.68  0.5  mtk yes tchain  5  pchain  5
fix 1  all npt temp  0.7 ${temp}  0.1  iso  5.68  5.68  0.5  mtk yes tchain  5  pchain  5
fix 1  all npt temp  0.7 0.7  0.1  iso  5.68  5.68  0.5  mtk yes tchain  5  pchain  5

dump dmp2 all dcd ${N} traj.dcd
dump dmp2 all dcd 100 traj.dcd
dump dmp3 all dcd ${N} traj_unwrap.dcd
dump dmp3 all dcd 100 traj_unwrap.dcd
dump_modify dmp3 unwrap yes


# fix rnuntil all halt ${N} v_max_n >= 3980 error soft message no   # Stop when solidified

run 100000 # 5000000  # Run for this many steps
Neighbor list info ...
  update every 1 steps, delay 10 steps, check yes
  max neighbors/atom: 2000, page size: 100000
  master list distance cutoff = 3.8
  ghost atom cutoff = 3.8
  binsize = 1.9, bins = 6 6 6
  5 neighbor lists, perpetual/occasional/extra = 1 4 0
  (1) pair lj/cut, perpetual
      attributes: half, newton on
      pair build: half/bin/atomonly/newton
      stencil: half/bin/3d
      bin: standard
  (2) compute orientorder/atom, occasional
      attributes: full, newton on
      pair build: full/bin/atomonly
      stencil: full/bin/3d
      bin: standard
  (3) compute coord/atom, occasional
      attributes: full, newton on
      pair build: full/bin/atomonly
      stencil: full/bin/3d
      bin: standard
  (4) compute cluster/atom, occasional
      attributes: full, newton on
      pair build: full/bin/atomonly
      stencil: full/bin/3d
      bin: standard
  (5) compute rdf, occasional, copy from (1)
      attributes: half, newton on
      pair build: copy
      stencil: none
      bin: none
Per MPI rank memory allocation (min/avg/max) = 9.703 | 9.706 | 9.708 Mbytes
Step Temp PotEng c_msd[4] v_twopoint v_fit v_max_n Press Volume Density 
    4000   0.73524353   -6.6979324 1.5850261e-30 3.3021372e-32 8.3333333e+20            2    5.7212663    860.09208    1.0045436 
    4100   0.72897157   -6.7580415  0.031153754 0.0006332063  0.028378704            2    5.5814673    857.59872    1.0074642 
    4200   0.71506662   -6.7664554  0.056041377  0.001111932  0.024305294            4    5.9351056    851.56386    1.0146039 
    4300   0.71790531   -6.7897458  0.074220009 0.0014383721  0.021352588            6    5.5592944     855.4785    1.0099611 
    4400   0.71859189   -6.7525594  0.088154339 0.0016695896    0.0183624            9    6.0762171    850.40202    1.0159901 
    4500   0.70156157   -6.7731064   0.10306902 0.0019086854  0.016641374            4    6.2869729    846.77618    1.0203405 
    4600   0.71411208   -6.7513965   0.11426611 0.0020700379   0.01527291            7    6.1401141    849.07787    1.0175745 
    4700   0.70003241   -6.8030868   0.12751064 0.0022608267  0.014212633           10    5.1771695    858.74705     1.006117 
    4800    0.6823307   -6.7939913   0.13014545 0.0022594694  0.013203426            4    5.5277207    854.42083    1.0112113 
    4900   0.69894595   -6.7520785   0.13568815 0.0023076214  0.012037114            8    5.6826027    856.06913    1.0092643 
    5000   0.69514662   -6.7640186   0.14337397  0.002389566  0.011105034            9    5.4190217    858.78461     1.006073 
    5100   0.69019153    -6.767898   0.14620124  0.002388909  0.010285771            6    6.0467801    849.47657    1.0170969 
    5200   0.69466577   -6.8334731   0.14923008 0.0023915075 0.0094788027            9    5.5727314    851.34024    1.0148704 
    5300   0.70789631   -6.7988839   0.16437434 0.0025845019 0.0089848975            8    5.2471494    858.26386    1.0066834 
    5400   0.69211341     -6.79551    0.1684154 0.0025990029 0.0086193312           10    5.3346682    857.09769    1.0080531 
    5500   0.68203893   -6.7857946   0.17733116 0.0026868355 0.0083024404           13     5.889521    850.60368    1.0157492 
    5600   0.72258603    -6.740819   0.18246777  0.002715294 0.0080633725            9    6.0362986    851.90299       1.0142 
    5700   0.70365934   -6.7881732   0.18690733 0.0027325631 0.0077843051            5    5.9426636    849.10295    1.0175445 
    5800   0.70754734   -6.7970338   0.19153823 0.0027519858 0.0075465839           13    5.8720792    849.58092     1.016972 
    5900   0.70838474   -6.7638137   0.19649777  0.002775392 0.0072913447           14    5.7885646      852.645    1.0133174 
    6000   0.74151683   -6.8359992    0.2071073   0.00287649 0.0071306637            9    5.2182049    856.27023    1.0090273 
    6100     0.685599   -6.8402867   0.21257237 0.0029039939  0.006984093            4    5.6407905    849.61497    1.0169312 
    6200     0.722478   -6.8084501   0.21541648 0.0028953826  0.006819001            8    5.9776709    847.58152     1.019371 
    6300   0.67880241   -6.7978021   0.22398838 0.0029628091 0.0066901912           11    5.5965334    853.13181    1.0127392 
    6400   0.70599065    -6.813827   0.22691101 0.0029545702 0.0065632742            3    5.1124043    858.79248    1.0060638 
    6500   0.68457736   -6.7906521   0.23361974 0.0029951247 0.0064434172           10    5.5030299    855.11164    1.0103944 
    6600   0.69793288   -6.8076094    0.2435739 0.0030754277 0.0063464779           12      5.92712    849.06457    1.0175905 
    6700   0.69444283    -6.778196    0.2612645 0.0032495582 0.0063230554            8    5.9763397    849.53232    1.0170302 
    6800   0.71894198   -6.7867344   0.27264263 0.0033412084 0.0063452741            5    5.5119659    855.72651    1.0096684 
    6900   0.68436684   -6.8174041   0.26446428 0.0031940128 0.0063208892            8    5.5935849    852.66858    1.0132894 
    7000   0.69492417   -6.8159005   0.27024709 0.0032172271 0.0062486985           10    5.7003243    850.99938    1.0152769 
    7100   0.73433557   -6.7992792   0.28214603 0.0033115729 0.0062030178           10    5.7861972    851.39807    1.0148015 
    7200    0.6902087   -6.7988089     0.302192 0.0034975923 0.0062171819           26    5.7392365    851.52297    1.0146526 
    7300   0.72210024   -6.8716679   0.30794959  0.003515406 0.0062448949           11    4.8967061    858.47586    1.0064348 
    7400   0.67646653   -6.7782242   0.30868951 0.0034762329 0.0062469767           10    5.6596731    854.00139     1.011708 
    7500    0.7109687    -6.855184   0.31640731 0.0035156365 0.0062325458            5    5.5973095    849.65421    1.0168843 
    7600   0.71057456   -6.8054909   0.31694586 0.0034752833 0.0062182385            3    5.8076934    850.73273    1.0155951 
    7700   0.74507621   -6.7932738   0.31253048 0.0033823642  0.006163149            4    5.9949719    849.44779    1.0171314 
    7800   0.71375313   -6.8272521   0.31709926 0.0033878124 0.0061016576            4    5.8387688    848.92556    1.0177571 
    7900   0.67311605   -6.8289952    0.3230013 0.0034071865 0.0060350496           12    5.4419746     853.1826    1.0126789 
    8000   0.70691359   -6.8313716   0.33063833 0.0034441491 0.0059736483            6     5.468906    853.33869    1.0124936 
    8100   0.71678784   -6.8051456   0.34115972 0.0035098735 0.0059333369           11    5.6931832    851.68588    1.0144585 
    8200     0.701761   -6.8674862   0.34067848 0.0034621794 0.0058890875            6    5.4990579    850.08928    1.0163638 
    8300   0.72093348   -6.8736696   0.34950506 0.0035090867 0.0058415992           18    5.6837262    847.28321    1.0197299 
    8400   0.73163726   -6.8108677   0.35370629 0.0035089908 0.0058045176           32     6.013106    847.92481    1.0189583 
    8500     0.711604   -6.8730916   0.35773553 0.0035072109 0.0057607327           12    5.6977579     846.8577    1.0202422 
    8600   0.69632201   -6.8895424   0.37009186 0.0035861612 0.0057271818           18    5.5305318    847.67808    1.0192549 
    8700   0.72370077   -6.8265935   0.38104473 0.0036498536 0.0057087803           13    5.8684361    848.27999    1.0185316 
    8800   0.74955708   -6.8470122   0.39297268  0.003721332 0.0057063683           19    5.8093663    848.06641    1.0187881 
    8900   0.72553507   -6.8818981   0.39394673 0.0036886395 0.0056973994           21    5.7683081    845.79822    1.0215202 
    9000   0.70457885   -6.8676352   0.40273309 0.0037290098 0.0056885022           14    5.7900518    845.67608    1.0216678 
    9100    0.6920142   -6.8319693   0.41632662 0.0038125146 0.0056894004           22    5.4943698    852.67469    1.0132821 
    9200   0.69117027   -6.8219204   0.41009013 0.0037145843 0.0056835566           27    5.1365227    857.26944    1.0078512 
    9300   0.65595144   -6.8266399   0.40891701 0.0036641308 0.0056583782           16    5.6575258    849.83646    1.0166662 
    9400   0.68082604    -6.810399   0.41367715 0.0036673504 0.0056263217            9    5.5770321    852.47002    1.0135254 
    9500   0.69765368   -6.7975408   0.41834695 0.0036697099 0.0055964303            6    5.7150754     852.1963    1.0138509 
    9600   0.69011921   -6.8190099   0.42519766 0.0036909518 0.0055702851           11    5.7952808    849.36506    1.0172304 
    9700   0.67975649    -6.883081   0.42087488 0.0036157634 0.0055332437           27    5.7407856    845.61942    1.0217362 
    9800   0.74811493   -6.9023047   0.42864406 0.0036449323 0.0054960755           39    5.4103539    848.98146    1.0176901 
    9900   0.69067473   -6.8316193   0.44563365 0.0037511248  0.005471247           26    6.1344203    844.05382    1.0236314 
   10000   0.74422789   -6.8207259   0.44634777 0.0037195645 0.0054545274           17     6.039459    846.80282    1.0203084 
   10100   0.72144403   -6.8234769   0.44369547 0.0036608535 0.0054257226           21    5.6243388    851.34363    1.0148664 
   10200   0.69437231     -6.86371   0.45228762 0.0036951601 0.0053963474           14    5.2727312    852.53485    1.0134483 
   10300   0.68241324   -6.8799768   0.44803263 0.0036248593 0.0053641815           26    5.8237247    844.76884     1.022765 
   10400   0.70476986   -6.8019518   0.43879664 0.0035159985 0.0053181855           45    6.2936224    844.05182    1.0236338 
   10500   0.72004266   -6.8972995   0.44061681 0.0034969586 0.0052647516           36    5.0119917    854.29952    1.0113549 
   10600   0.71830299   -6.8425796    0.4473703  0.003517062 0.0052131296           20     5.768162    848.22373    1.0185992 
   10700   0.67399326   -6.8516472   0.45199744 0.0035202291 0.0051654067           18      5.70059    848.20472     1.018622 
   10800   0.67296534   -6.7695963   0.46094643 0.0035566852 0.0051223686           20    5.9961662    849.93974    1.0165427 
   10900   0.68429725    -6.785257   0.46996809 0.0035930281 0.0050875609           28    5.4616491    856.15209    1.0091665 
   11000   0.68089617   -6.8591627   0.47281544  0.003581935 0.0050549156           19    5.1937756    854.27474    1.0113842 
   11100     0.689165   -6.7999379   0.47884801 0.0035949549 0.0050206304            6    5.7988673    850.89073    1.0154065 
   11200   0.71626746   -6.8254011   0.48928068 0.0036404811  0.004994404            7    5.6124841    851.85122    1.0142616 
   11300   0.67912628   -6.8447051   0.48206252 0.0035550332 0.0049657469           17    5.6161131    849.88124    1.0166126 
   11400   0.70215336   -6.8486075   0.48120338 0.0035175684  0.004927852           29    5.6149801    849.90374    1.0165857 
   11500   0.70532617   -6.8403747   0.48723672 0.0035307007 0.0048925392           23    5.6828671    849.82552    1.0166793 
   11600   0.73260927   -6.8577908   0.49239972 0.0035373541 0.0048579946           20    5.4742656    851.42946     1.014764 
   11700   0.69488136   -6.8223273   0.49945529 0.0035573737 0.0048278028           13    5.8387238    849.16238    1.0174732 
   11800   0.70374743    -6.812055   0.51311524 0.0036236951 0.0048036806           10    5.7517307    850.29747     1.016115 
   11900   0.68624376   -6.8534156   0.52425894  0.003671281 0.0047860982           40    5.3929891    852.05829    1.0140151 
   12000   0.66746914   -6.9066484   0.53756554 0.0037330939 0.0047747144           46    5.2965281    849.41086    1.0171756 
   12100   0.68865297   -6.8213915   0.55185664 0.0038006654 0.0047712884           21    5.7442596    850.01564    1.0164519 
   12200   0.71153313   -6.7830405   0.56367748 0.0038502558 0.0047730018           24    6.0898536    847.96608    1.0189087 
   12300   0.73623765   -6.7978949   0.57788883 0.0039152358 0.0047812567           17    6.1031813    847.02237    1.0200439 
   12400   0.68703748    -6.857072   0.58145024 0.0039075955 0.0047894378           17    5.4512459     850.6982    1.0156363 
   12500   0.71828735   -6.8630353    0.5772626 0.0038484172 0.0047940976           22    5.3925857    851.51751    1.0146591 
   12600   0.71072169    -6.811356   0.57962686 0.0038335108 0.0047922703            9    6.0065516    847.21774    1.0198087 
   12700   0.66621707   -6.8388441   0.59157246 0.0038817089 0.0047928245            6    5.8164076     847.1923    1.0198393 
   12800   0.69169348   -6.8414986   0.59461832 0.0038712129  0.004794805           15    5.6406232     849.7439    1.0167769 
   12900   0.70765583   -6.8250295    0.5962924  0.003852018 0.0047921421            5    5.7589359    849.81174    1.0166958 
   13000   0.71386701   -6.8040548   0.59425567 0.0038093311 0.0047873012           10    5.9425932    848.91267    1.0177725 
   13100   0.66419295    -6.794662   0.60225948  0.003831167 0.0047814814            9    5.8043086    850.41522    1.0159743 
   13200   0.74015974   -6.8247185   0.61247195 0.0038666157 0.0047777355           21    5.7417141    850.08261    1.0163718 
   13300   0.70486939   -6.8497886   0.62013092 0.0038855319 0.0047757384           23    5.4829075    851.70029    1.0144414 
   13400   0.70266581   -6.8783907   0.61881337 0.0038483417 0.0047730106           30    5.4366723    849.75683    1.0167615 
   13500   0.69476622   -6.8829191   0.61895108 0.0038206855 0.0047658041           16    6.1541697    840.10409     1.028444 
   13600   0.70713394   -6.8617674   0.63253662  0.003875837 0.0047605868           13    5.5638584    849.17606    1.0174569 
   13700   0.69935593   -6.8607273   0.63411432 0.0038571429 0.0047580949           15    5.1381689    855.14508    1.0103549 
   13800   0.66306845   -6.8586622    0.6357925 0.0038393266 0.0047499914           12    5.6649659    847.69107    1.0192392 
   13900   0.69133073   -6.8244858   0.64996196 0.0038966543 0.0047453496           30    5.8286114    848.67741    1.0180547 
   14000   0.70467047   -6.8490974   0.67208745 0.0040005204 0.0047479606           33    5.4234186    852.70366    1.0132477 
   14100   0.67616183   -6.8718576   0.67338027 0.0039797887 0.0047534396           58    5.7368602    846.02583    1.0212454 
   14200   0.69532516   -6.8707777   0.67032704  0.003933844  0.004754135           41    5.4577541    849.72524    1.0167993 
   14300   0.68079365   -6.8352166   0.68128622 0.0039701993 0.0047545162           33    5.6917579    849.42221     1.017162 
   14400   0.71356416   -6.8638389   0.67378342 0.0038992095 0.0047523867           35    5.3813246    851.65474    1.0144956 
   14500   0.68147245   -6.8218073   0.67466337 0.0038773755 0.0047459651           19     5.963965    846.24774    1.0209776 
   14600   0.69034265   -6.8701347   0.68506376 0.0039101812 0.0047420066           34     5.933096    843.48149     1.024326 
   14700   0.72021663   -6.8641462   0.68975094 0.0039101526 0.0047373126           31    5.7648611    846.37041    1.0208296 
   14800   0.67536467     -6.81937   0.70260462 0.0039561069  0.004735182           67    6.1022243    844.94698    1.0225494 
   14900   0.72476335   -6.8323948   0.70358808 0.0039350563 0.0047335612           39    5.5969191    851.46929    1.0147166 
   15000   0.71739515    -6.863079   0.70392533 0.0039106962 0.0047300189           54    5.3874565    852.20193    1.0138442 
   15100   0.70112454    -6.840841   0.69552379 0.0038384314 0.0047220374           76    5.8398305    847.23135    1.0197923 
   15200   0.70964974   -6.8454097   0.70606933  0.003870994 0.0047129389           69     5.857041    847.17887    1.0198555 
   15300   0.70935626   -6.8270147   0.70861212  0.003859543 0.0047053591           87    5.7605901    849.08166      1.01757 
   15400   0.66040784   -6.8477685   0.71599419 0.0038744273 0.0046977515           35    5.4587525    851.06898    1.0151939 
   15500   0.68615694   -6.8483765   0.71068759 0.0038209009 0.0046879084           20    5.2273926    854.46646    1.0111573 
   15600   0.69609587   -6.8349274   0.71433802 0.0038159081 0.0046767648           24    5.5614168    851.01974    1.0152526 
   15700   0.69874279   -6.8470229   0.70594816 0.0037470708 0.0046632371           11    6.0297165    844.26458    1.0233759 
   15800    0.7470956   -6.8139359   0.69917038 0.0036876073 0.0046457619           41    6.1111106    846.33619    1.0208709 
   15900   0.71100873   -6.8542524   0.70221989 0.0036803976 0.0046268795           38    5.8510806    846.45754    1.0207246 
   16000   0.71860202   -6.8746311   0.70142786   0.00365327 0.0046069911           47    5.7515912    845.64281     1.021708 
   16100   0.67392261   -6.8461574   0.70795205  0.003664348 0.0045872504           33    5.8247065    846.55986    1.0206012 
   16200   0.70394401   -6.8349475   0.72450053 0.0037268544 0.0045706456           33    5.4188212    853.33589     1.012497 
   16300   0.69245468   -6.8286105   0.73834644 0.0037747772 0.0045572482           31    5.6308336    850.85575    1.0154483 
   16400   0.66279271   -6.8525554   0.74279528 0.0037743661 0.0045467075           43    5.8723889    845.94821    1.0213391 
   16500   0.67578613   -6.8266087   0.73638725 0.0037191274 0.0045338053           38    5.5003749    852.15068    1.0139052 
   16600   0.69783792   -6.8426316   0.73029424 0.0036661356 0.0045172072           32    5.5773086     850.4304    1.0159562 
   16700   0.71256821   -6.8579687   0.74184071 0.0037017999 0.0045015805           19     5.655191    848.78918    1.0179206 
   16800   0.70879119   -6.8310782   0.73625425 0.0036520547 0.0044862557           14    5.6629301    850.18192    1.0162531 
   16900   0.70236241   -6.8297749   0.74114647 0.0036545683 0.0044700003           16    5.7854802    848.31582    1.0184886 
   17000   0.68686527   -6.8414179   0.74682941 0.0036609284  0.004454114           34    5.7785831    847.50408    1.0194641 
   17100   0.71264565   -6.8396046   0.75129682 0.0036612904 0.0044388891           16    5.4913692    851.95069    1.0141432 
   17200   0.71372789   -6.8471704   0.75836736 0.0036742604 0.0044246011           13    5.4442707    852.48237    1.0135107 
   17300   0.70597728   -6.8819592   0.77385801 0.0037276396 0.0044125894            5     5.807724    844.80976    1.0227155 
   17400   0.71235572   -6.8429644   0.77985634 0.0037349441  0.004403682           11    5.7379761    848.14103    1.0186985 
   17500   0.68350458   -6.8314363   0.78326591 0.0037298375 0.0043933842           16    5.5963998    850.39573    1.0159976 
   17600   0.70958484   -6.8698946   0.79206237 0.0037502952 0.0043842988           16    5.5151094    849.93107     1.016553 
   17700    0.7055304   -6.8449907   0.79667596 0.0037508283  0.004375977           30    5.7549461    848.00828     1.018858 
   17800   0.70462354    -6.802949   0.79528903 0.0037232631 0.0043672826           20    5.9502992     848.5063      1.01826 
   17900   0.69602589   -6.8664285   0.80292637 0.0037380184 0.0043585309           22    5.7878451    845.92653    1.0213653 
   18000   0.67871684   -6.8398272   0.80125313 0.0037095051 0.0043495347           19    5.9070642    845.86645    1.0214378 
   18100   0.68257373   -6.8785876   0.80465394 0.0037046682 0.0043393438           14    5.3542298    850.63496    1.0157118 
   18200   0.71493776   -6.8609977   0.81330175  0.003723909 0.0043289514           28    5.2839816    853.13541    1.0127349 
   18300   0.67857707   -6.7935081   0.82386932 0.0037516817 0.0043209358           24    5.9544955    848.46904    1.0183047 
   18400   0.74399052   -6.8661529   0.82811506  0.003750521 0.0043149511           24    5.9087927    845.05687    1.0224164 
   18500   0.69109277     -6.83302   0.82069821 0.0036968387 0.0043067353           21    6.0826658    844.69872    1.0228499 
   18600   0.70460604   -6.8327535    0.8217623 0.0036817306 0.0042971934           15    5.6272863    850.47847    1.0158987 
   18700   0.70925306   -6.8190366   0.82637635  0.003682604 0.0042873901           16    5.5200375    853.13195     1.012739 
   18800   0.68080366   -6.8759756   0.84059593 0.0037260457 0.0042776755           19    5.5315935    848.73721    1.0179829 
   18900   0.69405869   -6.8639626   0.84443829 0.0037232728 0.0042705159            9     5.698448    846.97701    1.0200985 
   19000   0.70861651   -6.8535034   0.85940584 0.0037693238 0.0042636561           19    5.1641331    854.89613    1.0106491 
   19100   0.70464734   -6.8206238   0.86327691 0.0037664786 0.0042577877           17    5.4299976    853.29492    1.0125456 
   19200   0.71691261    -6.877241   0.87007441 0.0037763645 0.0042529754           43    5.5583022    848.73113    1.0179902 
   19300   0.74120399   -6.8126322   0.86505156 0.0037351103 0.0042473942           24    6.0990546    846.28438    1.0209334 
   19400   0.69649615   -6.7932181   0.86744674 0.0037261457 0.0042412163           28    5.9060353    849.81594    1.0166907 
   19500   0.71171467   -6.8548207   0.86139376 0.0036811698 0.0042333035           78    5.7767329     847.1012     1.019949 
   19600   0.71147629   -6.8709337   0.85267449 0.0036253166 0.0042231893           21    6.0001139    843.45382    1.0243596 
   19700   0.66743408   -6.8833349   0.85581597 0.0036202028  0.004211686           23    5.6897085    845.90958    1.0213858 
   19800   0.72573244   -6.8961384   0.88404156 0.0037207135 0.0042025022           25    5.3853365    849.49211    1.0170783 
   19900   0.69760243   -6.8725485   0.89922426 0.0037655956 0.0041982468           20    5.6485598    847.44828    1.0195312 
   20000   0.70952259   -6.9432829   0.89947728 0.0037478219 0.0041938764           41    5.5420904    843.64468    1.0241278 
   20100   0.70407708    -6.870111    0.9190734 0.0038104203 0.0041905763           34    5.5270744    849.35814    1.0172387 
   20200   0.70320051   -6.8355134   0.92336897 0.0038092778 0.0041885097           43    5.5707529    851.07521    1.0151864 
   20300   0.67574313   -6.8574174   0.93386924 0.0038336175 0.0041867598           44    5.3633448    852.44146    1.0135593 
   20400   0.65584459    -6.888911   0.92166521 0.0037649722 0.0041837173           60    5.4711268    848.36322    1.0184317 
   20500   0.69384842   -6.8394993   0.92451445 0.0037581887 0.0041791631           24    5.7657083    847.97814    1.0188942 
   20600   0.70591424   -6.8455565    0.9377099 0.0037933248 0.0041756257           24     5.578998    849.88371    1.0166097 
   20700    0.6883874   -6.8794533   0.94165589 0.0037908851 0.0041733881           25    5.5483822    847.73589    1.0191854 
   20800   0.67176871   -6.8215388   0.93547171 0.0037478834 0.0041693658           48    6.3170479    841.92557     1.026219 
   20900   0.71968543    -6.837331   0.94545584   0.00376976 0.0041657878           25    6.0988386    844.53853    1.0230439 
   21000   0.71431434   -6.8545146   0.94222875 0.0037390029 0.0041623275           70    5.7287106    847.87074    1.0190233 
   21100   0.70059895   -6.8971928   0.94816643  0.003744733 0.0041576428           57    5.5634698    846.45012    1.0207335 
   21200    0.6754742   -6.8610691    0.9622655 0.0037824901 0.0041535776           38    5.8417935    845.33786    1.0220765 
   21300   0.71724327   -6.8684678   0.97509014 0.0038149065 0.0041512946           15    5.6142095     848.0805    1.0187712 
   21400   0.69322713    -6.831523   0.98646508 0.0038413748 0.0041509353           22     6.125251     844.0583     1.023626 
   21500   0.73512013   -6.8391393   0.99985355 0.0038754013 0.0041515741           16    5.7487241    848.92318    1.0177599 
   21600    0.6751609   -6.8487658    0.9851424 0.0038007036 0.0041507317           16    5.8184964    846.66961    1.0204689 
   21700   0.69422954   -6.8693743   0.99266837 0.0038120904 0.0041484343            9    5.3516801    851.27012     1.014954 
   21800   0.73577915   -6.8289814    1.0001698  0.003823279 0.0041466961           14    5.3874252    854.07262    1.0116236 
   21900   0.70393797   -6.7621326   0.98113871 0.0037334045 0.0041437069           17    6.3955309     845.3583    1.0220518 
   22000   0.70291937   -6.8939246    0.9833789   0.00372492 0.0041384766           32    5.2946045     851.2169    1.0150174 
   22100   0.71859882   -6.8599715   0.99037239 0.0037344358 0.0041335666           21    5.4924463    850.98419     1.015295 
   22200   0.71674206   -6.8083368    1.0013369  0.003758772 0.0041289887           25    5.9062154     849.3042    1.0173033 
   22300   0.71283202   -6.8359783    1.0162542 0.0037976613 0.0041265203           34    5.8112568    848.61465      1.01813 
   22400   0.69993556   -6.8732185    1.0144651 0.0037740515 0.0041237645           35    5.8014118    845.57423    1.0217908 
   22500    0.6966517   -6.8696186    1.0313572 0.0038198413 0.0041216709           60     5.471555    850.60928    1.0157425 
   22600   0.70484414   -6.8195727    1.0316864 0.0038041532 0.0041202219           46    5.5932259    852.19979    1.0138468 
   22700   0.69827839   -6.8375905    1.0296486 0.0037799141  0.004118576           67    5.7272402    849.57535    1.0169787 
   22800    0.7001257   -6.8272462    1.0213868 0.0037331389 0.0041147134           82    5.7985418    849.11527    1.0175297 
   22900   0.73904616   -6.8270015    1.0495932 0.0038194804 0.0041122454           68    5.7270405    850.37083    1.0160273 
   23000   0.71455706   -6.8379739    1.0356334 0.0037522947 0.0041099788           31    5.8055637    848.52984    1.0182317 
   23100   0.68281251   -6.8594931    1.0355943 0.0037359102 0.0041057107           43    5.3042855    852.57221    1.0134039 
   23200   0.70874237   -6.8241275    1.0300962 0.0037000579 0.0041009868           56    5.7484204    849.81065    1.0166971 
   23300   0.69848969   -6.8917451    1.0338984 0.0036977768 0.0040953791           61    5.1653979    852.49546    1.0134951 
   23400   0.68094364   -6.8470213    1.0301151 0.0036685008 0.0040889197           53    5.5272351    850.60389    1.0157489 
   23500   0.70515795   -6.8424306    1.0326461 0.0036618656 0.0040822655           29    5.7990137     847.7873    1.0191235 
   23600   0.72125919   -6.8318256     1.052523  0.003716536 0.0040773413           30      6.42086    840.23966     1.028278 
   23700   0.68612197   -6.8825958    1.0560647 0.0037133077 0.0040728949           73    5.7561192    845.20323    1.0222393 
   23800   0.69686835   -6.8511219    1.0692733  0.003743954 0.0040687985           74    5.4884594    850.80791    1.0155054 
   23900   0.69354808   -6.8681221     1.093231 0.0038118237 0.0040664044           12    5.2418225    852.70121    1.0132506 
   24000   0.72572336   -6.8020609    1.1167725 0.0038776822 0.0040667542           21    5.8814429    850.24257    1.0161806 
   24100   0.70954838   -6.8089844     1.127101 0.0038973063 0.0040691784           24     5.995134    847.08705     1.019966 
   24200   0.70669795   -6.8318551    1.1173003 0.0038474528 0.0040706023            7    5.9724537    846.13912    1.0211087 
   24300   0.69985691   -6.8713259    1.1235055 0.0038528994 0.0040711315           11    5.5014005    849.25947    1.0173569 
   24400   0.68553692   -6.8291089    1.1376963 0.0038855748 0.0040721512           15    5.4718241    852.44887    1.0135505 
   24500   0.68992609   -6.7934489    1.1350645 0.0038607634 0.0040726447           18    5.7147436    851.65305    1.0144976 
   24600   0.68801849   -6.8266647    1.1434327  0.003873417 0.0040740827           18    6.1602466    843.90085     1.023817 
   24700   0.66748552   -6.8502958    1.1478146 0.0038725187 0.0040748491           12    5.5039451    850.87238    1.0154284 
   24800   0.65761312   -6.8326288    1.1536813 0.0038766171 0.0040752302           13    5.3032115    854.48173    1.0111392 
   24900   0.70243886     -6.86624    1.1542128 0.0038628272 0.0040757777           13     5.274596    853.37965    1.0124451 
   25000   0.72523368   -6.8570565    1.1621859 0.0038739529 0.0040762741           16    5.6732524    848.66933    1.0180644 
   25100   0.73700941   -6.8347739    1.1733079 0.0038954445 0.0040777237           38    6.0393602    845.62946    1.0217241 
   25200   0.68246968   -6.8082394    1.1782478 0.0038963221 0.0040794784           15    5.9379144    848.19776    1.0186304 
   25300    0.7146819   -6.8556984     1.172068 0.0038605665 0.0040800225           21    5.5911179    849.89306    1.0165985 
   25400    0.6771724   -6.8563297    1.1611777 0.0038096379 0.0040796392           17    5.6607218    848.16521    1.0186695 
   25500   0.71456073    -6.833474    1.1713147 0.0038278258 0.0040784786           16    6.0815119    844.48396      1.02311 
   25600   0.70766296   -6.8622137    1.1789432 0.0038377056 0.0040777245           21    5.4482023    850.42393    1.0159639 
   25700   0.70071299   -6.7842227    1.1871688 0.0038494448 0.0040777436           23    6.1128785    847.35631    1.0196419 
   25800   0.68306529   -6.8322943     1.182584 0.0038197157  0.004077153           21    6.1898237    842.92863    1.0249978 
   25900   0.67616018    -6.843906    1.1872313 0.0038199203  0.004075978           14    5.4565497    851.73858    1.0143958 
   26000   0.69991525   -6.8517032    1.1802042 0.0037827056 0.0040737732           22    5.1006934    856.25956    1.0090398 
   26100   0.67847937   -6.8275527    1.1759478 0.0037546226 0.0040702152           15    5.7616299    848.46577    1.0183086 
   26200   0.70280023   -6.8184831    1.2039709 0.0038294238 0.0040683128           20    5.8578478    848.43881     1.018341 
   26300   0.69293208   -6.8052482    1.2176391 0.0038581718 0.0040683494           13     5.904355    848.77164    1.0179416 
   26400   0.68691067   -6.8975579    1.2033174 0.0037983504 0.0040674093            6    5.3970266    849.24297    1.0173767 
   26500   0.69992446   -6.8305052    1.1990252 0.0037705195 0.0040649289            7    5.5903435    850.64595    1.0156987 
   26600   0.69641112   -6.8327604     1.185429 0.0037137498 0.0040612521           14    5.9181375    846.86734    1.0202306 
   26700   0.68256797   -6.8268033    1.1935275 0.0037251171 0.0040573819           18    5.9748413    846.67472    1.0204627 
   26800   0.71355689   -6.8502835    1.2073527  0.003754206 0.0040536974           28    5.4509767    852.35175     1.013666 
   26900    0.6877161   -6.8849261    1.2135104 0.0037593259 0.0040505506           22    5.4392533     849.2946    1.0173148 
   27000    0.6793675   -6.8323266    1.2069883 0.0037252724 0.0040474091           15    5.9371072    846.19177    1.0210452 
   27100   0.70734732   -6.8440862    1.2096534 0.0037197212 0.0040435942           12    5.9295117    845.85177    1.0214556 
   27200   0.70093929   -6.8467939    1.2346063 0.0037824948 0.0040408838           14    5.8726129     846.2242     1.021006 
   27300   0.73792794   -6.8442906    1.2432582 0.0037950494 0.0040394315           10    5.5102741    852.09553    1.0139708 
   27400   0.71545906   -6.8430586    1.2396683 0.0037702805 0.0040370892           17    6.0396276    844.66145     1.022895 
   27500   0.70895137   -6.8882537    1.2469901 0.0037787579  0.004035313           33    5.9758321     842.6113    1.0253838 
   27600   0.72711236   -6.8839442    1.2553293 0.0037902454 0.0040335337           36    5.8590829    844.73514    1.0228058 
   27700   0.73472207   -6.8791235    1.2707491 0.0038229515 0.0040325701           37    5.4118209    850.74025    1.0155861 
   27800   0.71383096   -6.8907545    1.2672001 0.0037985614  0.004031469           24    5.4978738     848.6496     1.018088 
   27900   0.65956173   -6.8521995    1.2669144 0.0037840931 0.0040296847           14    5.6323059    848.43428    1.0183464 
   28000    0.7094779   -6.8640581    1.2724708 0.0037871153 0.0040278889           22    5.6308672    848.33496    1.0184656 
   28100   0.66466976   -6.8233739    1.2625213 0.0037441319 0.0040257462           26    6.1542574    843.74682    1.0240039 
   28200   0.69267883   -6.9165975     1.269213 0.0037506293 0.0040226601           35    5.2218266    849.84542    1.0166555 
   28300   0.69283071   -6.8135422    1.2633593 0.0037201393 0.0040195777           21    5.6777044    851.34202    1.0148683 
   28400   0.68282673   -6.8437246    1.2572445 0.0036890978  0.004015679           25    5.7604036    847.93526    1.0189457 
   28500   0.68043415   -6.8638804    1.2518035 0.0036602441 0.0040108032            9    5.6060505    848.49224    1.0182768 
   28600   0.70742723   -6.8469537    1.2672515 0.0036924578 0.0040059832           25    5.3163277    853.60432    1.0121786 
   28700   0.69873828   -6.8189263    1.2805939 0.0037183331 0.0040021027           12    5.5366549    852.72976    1.0132167 
   28800   0.68632038   -6.8356662    1.2776309 0.0036968487 0.0039987401           45    6.1883543    843.02043    1.0248862 
   28900   0.70108446   -6.8578964    1.2897328 0.0037189525 0.0039954023           32    5.9115635    845.25784    1.0221733 
   29000   0.71224656   -6.8603462    1.2919813 0.0037125898 0.0039922242           32    5.7448677    846.89916    1.0201923 
   29100   0.67910212   -6.8947351    1.2934375 0.0037040018 0.0039888549           26    5.5367924    846.63741    1.0205077 
   29200   0.71621626   -6.8631086     1.287482 0.0036743207 0.0039847645            7    5.4908959     850.2638    1.0161552 
   29300   0.69864773    -6.859918    1.2717809 0.0036171243 0.0039797226           15    5.6854836    848.12085    1.0187227 
   29400   0.65602079    -6.851837    1.2487855 0.0035396414 0.0039726371           15    5.7834843    846.45536    1.0207272 
   29500    0.6799184   -6.8854424     1.265652 0.0035752881  0.003965301           23    5.3759998    849.63646    1.0169055 
   29600   0.71119569   -6.8459044    1.2772832 0.0035959548 0.0039587995           11    5.2981807    854.45997     1.011165 
   29700   0.69707433    -6.816292    1.2831511 0.0036003117 0.0039532098           14    6.0524269    846.03051    1.0212398 
   29800   0.70323343   -6.8338643    1.2783502 0.0035748048 0.0039474166           22    6.4960433    839.65221    1.0289975 
   29900   0.70157611    -6.862675    1.2796313 0.0035664194 0.0039414241           22    6.1094714    842.04474    1.0260737 
   30000   0.72216133    -6.902297    1.2925324 0.0035903677 0.0039353828           53     5.233358    851.29637    1.0149227 
   30100   0.69932203   -6.8384518    1.2992335  0.003596992 0.0039299955           62    5.7655335    848.70638    1.0180199 
   30200    0.6907608   -6.8888518    1.3104031 0.0036159026 0.0039251072           34      5.96369    842.50625    1.0255117 
   30300   0.70196154   -6.8906493    1.3243348 0.0036422848 0.0039205354           36    5.2898351     850.4886    1.0158866 
   30400   0.68521778   -6.8544468    1.3253538  0.003633097 0.0039163885           19    5.4100532    851.87178    1.0142371 
   30500   0.71521341    -6.842983    1.3070837 0.0035712668 0.0039114583           43    5.9466063     845.6095    1.0217482 
   30600   0.70410427   -6.8661077    1.3020468  0.003545879 0.0039054471           43    5.9110932    844.65711    1.0229003 
   30700   0.68923417   -6.8913148     1.305573 0.0035439007 0.0038993199           22    5.3477977    850.05841    1.0164007 
   30800   0.69746209   -6.8323889    1.3178817 0.0035656972 0.0038932457           21    5.7070177    849.54619    1.0170136 
   30900   0.70848901   -6.8182979     1.331267 0.0035902562 0.0038882142           19    6.0686683     846.3525    1.0208512 
   31000    0.7071858   -6.8592117    1.3409281 0.0036046453 0.0038836855            4       5.7095    847.85501    1.0190422 
   31100   0.69472742     -6.83952    1.3493598 0.0036156478 0.0038795289           11    5.7112146    849.13869    1.0175016 
   31200   0.71335609   -6.8649267    1.3473781 0.0035987663 0.0038751512           17    5.5602016    849.48701    1.0170844 
   31300   0.68462847    -6.888742     1.350807 0.0035963976 0.0038707631           10    5.6219293    846.48049    1.0206969 
   31400   0.71258795   -6.8440227    1.3576616 0.0036031359  0.003866358           37    5.9665217    845.69034    1.0216505 
   31500   0.69713353   -6.7834614    1.3679284 0.0036188583 0.0038628998           30    5.9448858     849.5042    1.0170638 
   31600   0.68963702   -6.8314515     1.353093 0.0035682831 0.0038584428           30    5.3076509    854.08106    1.0116136 
   31700   0.69328754   -6.8638341    1.3608433 0.0035774009 0.0038535583           23    5.4863181    850.54272     1.015822 
   31800   0.72926314   -6.7905637    1.3645269 0.0035758042 0.0038488224           44    5.9254517    850.35002    1.0160522 
   31900   0.72335148   -6.8611825    1.3739264 0.0035891493 0.0038443527           63    5.4861531    850.71249    1.0156193 
   32000    0.6964077   -6.8411903    1.3929478 0.0036274681 0.0038409502           51     5.441009    852.30212     1.013725 
   32100   0.69650688   -6.8443357    1.3882943 0.0036040868 0.0038372709           58    5.6501869    849.79902     1.016711 
   32200   0.72280404   -6.8025881    1.3914133 0.0036009661 0.0038338899           52    6.0248577    847.52009    1.0194449 
   32300   0.71873377    -6.824164    1.3938386 0.0035960746 0.0038304091           58    5.7865651    849.53144    1.0170312 
   32400    0.6806549   -6.8413379    1.3772774 0.0035423802 0.0038261488           54    5.5936845    849.87908    1.0166152 
   32500    0.6716365   -6.9179056    1.3903984 0.0035651242 0.0038212841           42    5.1130479     851.1512    1.0150958 
   32600   0.67769357   -6.8102895    1.4093004  0.003602506 0.0038175154           45    5.7090467    850.77951    1.0155393 
   32700   0.69888393   -6.7686425    1.4094676 0.0035919153 0.0038141033           37    6.2259483    847.27006    1.0197457 
   32800    0.7481482   -6.7736533    1.4113515 0.0035857507 0.0038104949           36      5.74267    853.42204    1.0123948 
   32900      0.71838   -6.7863639    1.4143038 0.0035823298 0.0038071182           42    5.8014029    851.74165    1.0143921 
   33000   0.69541009   -6.8385759    1.4214237 0.0035894538 0.0038035235           28     5.521174    851.78444    1.0143411 
   33100    0.7152758    -6.836854    1.4339972 0.0036102649 0.0038002866           46    5.4904924    852.44561    1.0135544 
   33200   0.72241859   -6.7580882    1.4426772 0.0036211777 0.0037976461           14    6.2415488    847.95937    1.0189167 
   33300   0.73401814   -6.7794656    1.4534418 0.0036372418  0.003795757           16     6.326152    845.76681    1.0215582 
   33400   0.71048429   -6.8536785    1.4612703  0.003645884 0.0037939886           40     5.376892     853.1556    1.0127109 
   33500   0.69294758   -6.8425116    1.4626935 0.0036385409 0.0037918104           19    5.5290937    851.26413    1.0149611 
   33600   0.71137122   -6.8413132    1.4682891   0.00364159 0.0037896956           38    5.4394575    852.77583    1.0131619 
   33700   0.70493066   -6.7763933    1.4846689 0.0036712881 0.0037880899           46    5.8497527    851.53582    1.0146373 
   33800    0.7050656   -6.8454287    1.4739884 0.0036340937 0.0037865095           24    5.8494332    846.54333    1.0206211 
   33900   0.68974289   -6.8051586    1.4893208 0.0036610638 0.0037846704           16    5.2695702    856.96458    1.0082097 
   34000   0.70307921    -6.791432    1.4783921   0.00362351 0.0037825962           12    5.5592819    853.95385    1.0117643 
   34100   0.72302566   -6.8605125    1.4698522 0.0035920142 0.0037799454           33    5.6117927    849.33357    1.0172682 
   34200   0.69733223   -6.7815508    1.4500694 0.0035333075 0.0037764031           35    6.2191588    846.96942    1.0201077 
   34300   0.68556275   -6.7698125    1.4625091  0.003553229 0.0037726204           18    5.7796767    853.25625    1.0125915 
   34400   0.70265234   -6.8302387    1.4679722 0.0035561341 0.0037685975            8    5.5533836    851.92928    1.0141687 
   34500   0.68791879   -6.8290103    1.4690357 0.0035483954 0.0037648605            6    5.6137686    851.12217    1.0151304 
   34600    0.6708251   -6.7829978    1.4817344 0.0035687244 0.0037614068            5     5.698424    852.94252    1.0129639 
   34700   0.70389741   -6.7879812     1.505011 0.0036143394 0.0037587282            4    5.4530767    856.12269    1.0092011 
   34800   0.71986852    -6.782237    1.5302449 0.0036643795 0.0037571786            2     5.386201    857.81118    1.0072147 
   34900   0.69505427   -6.7129591    1.5370252 0.0036700696 0.0037561553           12    5.8336712    856.53639    1.0087137 
   35000   0.70833271   -6.7848022    1.5310346 0.0036453203 0.0037549436           24    5.6197326    854.93043    1.0106085 
   35100   0.71674144   -6.8038035    1.5318683 0.0036369144 0.0037534089           11    5.9489707    849.06821    1.0175861 
   35200   0.69330656   -6.7982374    1.5321208   0.00362718 0.0037518103            3    6.3909976    843.08149     1.024812 
   35300   0.70408752   -6.7973125    1.5483983 0.0036553312 0.0037504507            5    5.6862573    852.64428    1.0133182 
   35400   0.71339572   -6.8090099    1.5554422  0.003661587 0.0037493599           16    5.4402569    854.44765    1.0111796 
   35500   0.70399432   -6.8014706    1.5600112 0.0036619982 0.0037483033           11    5.5533899    853.56567    1.0122244 
   35600   0.66812751   -6.7886665    1.5584175 0.0036479809 0.0037473388            3    5.7692471    851.60458    1.0145554 
   35700   0.66590595   -6.8407503    1.5655591 0.0036544329 0.0037458352           10    5.5792463    850.40515    1.0159863 
   35800   0.68404208   -6.8072973    1.5881442 0.0036967975 0.0037450489            4    5.1764638    858.60497    1.0062835 
   35900   0.68505136   -6.7811188    1.5914357 0.0036941404 0.0037448722            4    5.6670658    853.90577    1.0118212 
   36000   0.71494248   -6.7845549    1.5888906 0.0036779875 0.0037444444            7    6.0315068    848.75322    1.0179637 
   36100   0.69217185   -6.8058348    1.5829343 0.0036540495  0.003743684            3    6.0423446    846.99095    1.0200817 
   36200   0.71428279   -6.8660012    1.5733137 0.0036218086 0.0037424008            5    5.5656204    849.04008    1.0176198 
   36300   0.71078343    -6.791474    1.5844159 0.0036373183 0.0037408147           12     5.843301      850.954     1.015331 
   36400   0.68604894   -6.8467927    1.5818025 0.0036213427 0.0037391617            4     5.427213    852.66772    1.0132904 
   36500   0.70355881   -6.8658206    1.5798449 0.0036069517  0.003737016            5    5.4508839    851.17004    1.0150733 
   36600   0.69053594   -6.8078087    1.6022723 0.0036481608 0.0037355704           20    5.6136216    852.35261     1.013665 
   36700   0.73583752   -6.7896472    1.6118133 0.0036598848 0.0037344924           10    5.6338178    854.15363    1.0115276 
   36800    0.6808059   -6.7776069    1.6089279 0.0036434056 0.0037335125           21    5.8703915    850.91939    1.0153723 
   36900   0.70340682   -6.8511185    1.6315395 0.0036845968 0.0037327536           17     5.394727     852.2062    1.0138391 
   37000    0.7298903   -6.7858392    1.6453189 0.0037056732 0.0037326368            8    5.7755734    852.61442    1.0133537 
   37100   0.70188512   -6.7787191    1.6421845 0.0036886443 0.0037325886           13    6.0172477    848.66691    1.0180673 
   37200   0.69532614   -6.8297394    1.6489222  0.003693822 0.0037328161           11    5.7384348    849.13549    1.0175055 
   37300     0.687814   -6.8450379      1.64951 0.0036852324 0.0037324158            5    5.6080141    850.49105    1.0158837 
   37400   0.70968777   -6.7992332    1.6608464 0.0037006382 0.0037324125            5     5.601926     853.0535    1.0128321 
   37500   0.71137661   -6.8243644    1.6801705 0.0037337122 0.0037326304            5    5.6030224    851.54246    1.0146294 
   37600   0.70364433   -6.8253497    1.6749752 0.0037122678 0.0037332119            8     6.142864    844.73337    1.0228079 
   37700   0.72073627   -6.8149079    1.6965331 0.0037500732 0.0037340443           19    5.9860118    847.29314    1.0197179 
   37800   0.68235305   -6.8374043    1.7005289 0.0037489613 0.0037351772           19    5.7303395    848.27805     1.018534 
   37900   0.69090292   -6.8602205    1.6935538 0.0037237329 0.0037357603           20    5.6574819    848.26721     1.018547 
   38000   0.67572562   -6.7872328    1.7038847 0.0037365892 0.0037362667           16    5.6182407    853.31304    1.0125241 
   38100   0.69847641   -6.8118194    1.7062418 0.0037319374 0.0037367782           16    5.2932778    857.03332    1.0081288 
   38200   0.70623176   -6.8684031    1.6954955 0.0036987248 0.0037368169           12     5.162111    854.23673    1.0114292 
   38300   0.70447034   -6.8091294    1.6939086 0.0036856148 0.0037364762           12    6.1011906    846.73082    1.0203951 
   38400   0.71646547   -6.7609866    1.7146824 0.0037210988 0.0037365393           10    5.9244061    852.39286    1.0136171 
   38500   0.67341914    -6.777501    1.7257786 0.0037354514 0.0037371406           14     5.695984    853.14028    1.0127291 
   38600   0.69040671   -6.8351723    1.7307322 0.0037364685 0.0037375887           17    5.3500387     854.3084    1.0113444 
   38700   0.69309771   -6.8105784    1.7366968 0.0037396571 0.0037381145           15    5.5987696    852.18039    1.0138698 
   38800   0.67643714   -6.8362124    1.7103292 0.0036733874 0.0037382047           15    5.8750153    846.81392     1.020295 
   38900   0.72147932   -6.8252694    1.7281287 0.0037020752 0.0037377562            9    5.6992763     850.3617    1.0160382 
   39000   0.71385911   -6.8395735    1.7399129 0.0037177626  0.003737836           16    5.2004649    855.62886    1.0097836 
   39100    0.6786548   -6.8043886    1.7421331  0.003712986 0.0037378884           16    5.8177593     850.1868    1.0162473 
   39200   0.70485614   -6.8649359    1.7455601 0.0037107994 0.0037379556           11    5.3975662    851.56981    1.0145968 
   39300   0.66100126   -6.8285212    1.7600675 0.0037321193 0.0037380378           17    5.5937213    850.41954    1.0159691 
   39400   0.67891465   -6.8490457    1.7637725 0.0037304832 0.0037385052           24    5.5722048    850.36493    1.0160344 
   39500   0.71006668   -6.8240386     1.750225 0.0036924579 0.0037384395           24    5.5374133    852.83393    1.0130929 
   39600   0.66442707   -6.8388356    1.7437132 0.0036694302 0.0037377927           38    5.6020359    850.55896    1.0158026 
   39700    0.6965017   -6.8314549     1.752605 0.0036788518 0.0037372033           45    5.6550906    850.33914    1.0160652 
   39800   0.67804173   -6.8259613    1.7546621 0.0036739156 0.0037365616           28    5.4941001    852.84873    1.0130753 
   39900   0.66745107    -6.835385    1.7631354 0.0036824047 0.0037359409           11    5.5392751    851.66605    1.0144821 
   40000   0.73232082   -6.8918104    1.7764881 0.0037010168 0.0037356949           28     5.235487    852.48156    1.0135117 
   40100   0.67567092   -6.8321163    1.7795854 0.0036982241 0.0037354874           25    5.7042003    849.67947     1.016854 
   40200   0.69203054   -6.8182741    1.7877048 0.0037058557 0.0037354218           21    5.7662914    849.73124    1.0167921 
   40300   0.69426146   -6.8347604     1.807667 0.0037379384 0.0037358737           21    5.5433113    851.49585    1.0146849 
   40400   0.71162024   -6.8472711     1.808725 0.0037308683 0.0037364535           20    5.7285686    848.05139    1.0188062 
   40500   0.71217725   -6.8829795    1.8154247 0.0037354417 0.0037370997           13    5.7048158    846.56449    1.0205956 
   40600   0.72992592   -6.8493587    1.8179515 0.0037314275 0.0037376428           26    5.7495225    848.03757    1.0188228 
   40700   0.70971444   -6.8104844      1.81299 0.0037121006 0.0037382329           22    6.2696278    844.12458    1.0235456 
   40800   0.70669746   -6.8461204    1.8282737 0.0037342191 0.0037385636           13    5.8891898    846.19922    1.0210362 
   40900   0.71468789   -6.8684001    1.8516013 0.0037726187 0.0037393728           14    5.4939332    849.88956    1.0166027 
   41000   0.69873777    -6.811155    1.8580357 0.0037764953 0.0037408772           23    6.1145217    845.45091    1.0219399 
   41100   0.70723118   -6.8876704    1.8564232 0.0037640372 0.0037420112           25    5.6468917     846.5524    1.0206102 
   41200   0.71737792   -6.8290608    1.8746422 0.0037917519 0.0037432634           24    5.8053503    848.85054     1.017847 
   41300   0.70930794    -6.818343    1.8709587 0.0037751386 0.0037447373           17    5.8901246    848.15313     1.018684 
   41400   0.70310118   -6.9123803    1.8670732 0.0037581988 0.0037455493           36    5.4832421    847.03325    1.0200308 
   41500   0.69747887   -6.8735034    1.8738229 0.0037626965  0.003746543           47    5.8854493    844.22573     1.023423 
   41600   0.69847949   -6.8481037     1.886899 0.0037798458 0.0037477155           66    5.8477055    846.64879     1.020494 
   41700   0.71527027   -6.8106917     1.910309  0.003817564 0.0037491836           63    5.4807893    854.11751    1.0115704 
   41800   0.69607031   -6.8509746     1.898594 0.0037850757 0.0037507309           63    5.5601644     850.4754    1.0159024 
   41900   0.67580721   -6.8128719    1.9013019 0.0037814277 0.0037519049           55    5.9617634    847.14555    1.0198956 
   42000   0.70911544   -6.8151443     1.900868 0.0037715635 0.0037529972           49    5.5923333    852.10232    1.0139627 
   42100   0.67789303   -6.8437815    1.8951324 0.0037512518 0.0037537412           44    5.7235489    848.29544    1.0185131 
   42200   0.68722188   -6.8764492    1.8960187 0.0037441127 0.0037543217           44    5.4963029    849.08184    1.0175698 
   42300   0.65250634   -6.8974728    1.8790262 0.0037017853 0.0037543081           23    5.7285087    844.10765    1.0235661 
   42400   0.69767984   -6.8735999    1.8979133 0.0037301754 0.0037542951           48    5.6379385    847.89327    1.0189962 
   42500   0.73038961   -6.8600213    1.9170239 0.0037588704 0.0037547755           18    5.7787364     846.5845    1.0205715 
   42600   0.67260981   -6.8215843     1.920348 0.0037565493 0.0037556229           20    6.3095501    842.47935    1.0255444 
   42700   0.71799615   -6.8747091    1.9295944 0.0037657971 0.0037563734           17    5.8774678    844.40185    1.0232095 
   42800   0.74487127   -6.8566601    1.9426665 0.0037824503 0.0037575579           27    5.6240406     849.4268    1.0171565 
   42900   0.71194978   -6.8690914    1.9321411 0.0037531877 0.0037583823           51     5.502589    849.42362    1.0171603 
   43000   0.67426757    -6.845937    1.9211485  0.003723156 0.0037587592           24    5.8519746    846.30777    1.0209052 
   43100   0.69081431   -6.8571953    1.9339693 0.0037393065 0.0037587776           17    5.5397102    849.43095    1.0171515 
   43200   0.68916314   -6.8652762    1.9557618 0.0037726886 0.0037594382            8    5.2213469    853.20713    1.0126498 
   43300   0.72865693   -6.8509172    1.9519677 0.0037566738 0.0037601808            7    5.8466363    846.83093    1.0202745 
   43400   0.70184033   -6.7890411    1.9495698 0.0037434135 0.0037606814            8     6.389972    843.68299    1.0240813 
   43500   0.70200965   -6.8471675    1.9554489 0.0037460707 0.0037611382           13    5.7074897    848.66426    1.0180704 
   43600   0.67299426   -6.8610664    1.9590408  0.003744344 0.0037613797           16    5.2260286    853.81611    1.0119275 
   43700   0.69972785   -6.8578678    1.9570237 0.0037319293 0.0037613736           19    5.4566103    850.99935    1.0152769 
   43800   0.68703471   -6.8400998    1.9506999 0.0037113772 0.0037612816           23    5.8226143    847.56712    1.0193883 
   43900   0.71956529   -6.8799165    1.9367494 0.0036764416 0.0037607475           38    5.4732703    849.43165    1.0171507 
   44000   0.71538749   -6.8371046    1.9517989 0.0036965887 0.0037601858           40    5.5392257    851.50211    1.0146775 
   44100    0.6988417   -6.8110654     1.974564 0.0037312245 0.0037600691           35     5.958549    847.43764     1.019544 
   44200   0.68615708   -6.8718289    1.9794021 0.0037319043 0.0037601261           46    5.5462944    848.71328    1.0180116 
   44300   0.68715338   -6.8301452    1.9847753 0.0037335878 0.0037603394           60    5.8721254    847.58104    1.0193716 
   44400   0.69479153   -6.9198378    1.9663413 0.0036905804 0.0037603249           56    5.5553727    845.28697    1.0221381 
   44500   0.67342009   -6.8485741    1.9779091 0.0037039497   0.00375979           75    5.7627498    846.95638    1.0201234 
   44600   0.70863504   -6.8731647    1.9943597 0.0037263821 0.0037596788           30    5.6356547    847.77617    1.0191369 
   44700   0.73009205   -6.8542509    2.0123841 0.0037516483 0.0037598571           68    5.7726534     847.6885    1.0192423 
   44800   0.68603938   -6.8831181    2.0356418  0.003786536 0.0037606401           52    5.2815799     851.7826    1.0143433 
   44900   0.69464215   -6.8509943    2.0708567 0.0038434608 0.0037620818           57    5.4468902    851.82679    1.0142907 
   45000   0.71669037   -6.8359517     2.060418 0.0038155889 0.0037638071           76    5.7629494    848.59883    1.0181489 
   45100   0.69799561   -6.8545085    2.0713421 0.0038273135 0.0037652851           77    5.8443057    846.35219    1.0208516 
   45200    0.6559385   -6.8657333    2.0952103 0.0038628508 0.0037671498          103    5.3416593    851.93505    1.0141618 
   45300   0.70885858   -6.8730681    2.0949136 0.0038537777 0.0037691507           81    5.3275238    851.56839    1.0145985 
   45400   0.71785923   -6.8683049    2.0824584 0.0038224272 0.0037706619           63    5.6181453    848.67855    1.0180533 
   45500   0.67100675   -6.8775512    2.0785381 0.0038068464 0.0037719792           93    5.8985042    843.15711    1.0247201 
   45600   0.69634675   -6.8708391    2.0861899 0.0038124815 0.0037733073           76     5.658311    847.19016    1.0198419 
   45700   0.68477868   -6.8332808    2.0841827  0.003800479 0.0037745023           83      5.91911    846.57507    1.0205829 
   45800    0.7251312   -6.8934821    2.0807857 0.0037860002 0.0037754345           65    5.4332449     849.3888     1.017202 
   45900   0.67408362   -6.8994611    2.0954275 0.0038043346  0.003776336           51    5.6295204    845.45187    1.0219387 
   46000    0.6698086    -6.846528    2.1048213  0.003813082 0.0037775465           62    5.8297669    846.65853    1.0204822 
   46100   0.68556363   -6.8393019    2.1222558 0.0038363265 0.0037789476           76    5.7335457    848.80809    1.0178979 
   46200   0.72586096    -6.874554      2.13014 0.0038422438 0.0037805485           71    5.2909198    852.98357    1.0129152 
   46300   0.69709816   -6.8569553    2.1341975 0.0038412481 0.0037821429           55     5.645279    848.62155    1.0181217 
   46400   0.68843786    -6.872016    2.1440394 0.0038506454 0.0037838226           85     5.574957    847.97036    1.0189035 
   46500   0.68391499   -6.8215808    2.1495413 0.0038522246 0.0037854393           52    5.4990709    852.85276    1.0130705 
   46600   0.68656399   -6.8805421     2.148831 0.0038426877     0.003787           54    5.2941122    851.00295    1.0152726 
   46700   0.71380665   -6.9018492    2.1301755 0.0038011697 0.0037880753           51    5.6165984    845.84736    1.0214609 
   46800   0.66993988   -6.9013816    2.1204741  0.003775773 0.0037887957          123    6.0227226    840.05907    1.0284991 
   46900   0.69194214   -6.8833152    2.1390067 0.0038006515 0.0037894045          127    5.4324625    849.59356    1.0169569 
   47000   0.70304075   -6.8980156    2.1405478 0.0037952974 0.0037901908          102    5.2769515     850.0783     1.016377 
   47100    0.6665965   -6.8939154    2.1399026  0.003786098 0.0037910201           94    6.0443708    840.40712    1.0280732 
   47200   0.71372514   -6.8876268    2.1393138  0.003777037 0.0037916961          124    5.9196829    843.19942    1.0246686 
   47300   0.73223932   -6.8954492    2.1483779 0.0037850209 0.0037921692          137    5.2875772    850.66545    1.0156754 
   47400   0.67776661   -6.9079826    2.1586155 0.0037950342 0.0037928089          117    5.2827965    849.33695    1.0172641 
   47500   0.71939068   -6.8840901    2.1513207 0.0037742468 0.0037933578           50    5.6242219     847.2146    1.0198125 
   47600   0.70993188   -6.8815274    2.1523136  0.003768056 0.0037937157           44    5.5948792    847.71853    1.0192062 
   47700   0.69112803    -6.845339    2.1666394 0.0037851841 0.0037942567           48    6.0168405    844.42258    1.0231844 
   47800   0.69239846   -6.8745135    2.1824797 0.0038048809 0.0037951043          119     6.046397    841.89629    1.0262547 
   47900   0.73228285   -6.8865325    2.1950156 0.0038187467 0.0037962499           53    5.5397267     847.9716     1.018902 
   48000   0.71552604   -6.8575623    2.1769973 0.0037795091 0.0037969931           96    5.6258508    849.09857    1.0175497 
   48100    0.7091966   -6.8639069    2.2077876 0.0038249958 0.0037978332          102    5.4933549    849.74358    1.0167773 
   48200    0.6747841   -6.8821686    2.2020727 0.0038071796 0.0037987707           75    5.5259038    847.54002    1.0194209 
   48300   0.68004682   -6.8510972    2.1978023 0.0037919294 0.0037993606          137    5.5705806    849.92562    1.0165595 
   48400    0.7178011   -6.8476858    2.2060095 0.0037982257 0.0037999161           50    5.5268976    850.77757    1.0155416 
   48500   0.68564314   -6.8296561    2.2208762 0.0038159385 0.0038007735          135    5.9416564    846.70847    1.0204221 
   48600   0.69852975   -6.8347353    2.2191801 0.0038051785 0.0038016693          157    5.7430585    848.91879    1.0177652 
   48700   0.71782575   -6.8070569    2.2251727 0.0038076192 0.0038024544          115    5.4136365    855.40244    1.0100509 
   48800   0.71273134   -6.8510267    2.2402359 0.0038255394 0.0038033266          114    5.9101775    845.38762    1.0220164 
   48900   0.68592576   -6.8286781    2.2469651 0.0038291838 0.0038045941          120    6.1947358    842.66656    1.0253166 
   49000   0.71426071   -6.8733057    2.2295535 0.0037917576 0.0038054163           61    5.4135122    850.46011    1.0159207 
   49100   0.70515672   -6.8647702    2.2283298 0.0037819583 0.0038057122           67    5.5351303    849.82019    1.0166857 
   49200   0.72711169   -6.9057493    2.2309302 0.0037786758 0.0038061191           77    5.5217481     847.1683    1.0198682 
   49300   0.68563193   -6.8788646      2.23767 0.0037824037 0.0038064643           59    5.7897579    845.29889    1.0221237 
   49400   0.70191309   -6.8301733    2.2805815 0.0038471348 0.0038073811           47    5.7636345    848.65463     1.018082 
   49500   0.69721297   -6.8279533    2.2808126 0.0038397518 0.0038086896           54    5.7637161    848.53231    1.0182288 
   49600   0.66960459   -6.8734553    2.2928849 0.0038522931 0.0038098355           64     5.138751    853.36016    1.0124682 
   49700   0.68428184   -6.8075995    2.2792981 0.0038217607 0.0038109008           89    5.6842596    850.90561    1.0153888 
   49800   0.72237921    -6.821129    2.2749474 0.0038068062 0.0038117279           55    6.1182809    845.54813    1.0218224 
   49900   0.70581304   -6.8784542     2.271353 0.0037931747 0.0038124814          118    5.9123748    843.62019    1.0241576 
   50000    0.7090128   -6.8745483    2.2771218  0.003795203 0.0038129601           98    5.6172252    847.25537    1.0197634 
   50100   0.68247421   -6.8580773    2.2952807 0.0038178322 0.0038135734          100    5.6287487    848.26248    1.0185527 
   50200   0.66228291   -6.8989678    2.2761383   0.00377845 0.0038140034          119      5.35234    849.05789    1.0175985 
   50300   0.69596605   -6.8713901    2.3093712 0.0038259961 0.0038144125           95    5.3143963     852.0503    1.0140246 
   50400   0.69575837   -6.8345357    2.2819484 0.0037730627 0.0038149595           76    5.9663578    845.75306    1.0215748 
   50500   0.69525156   -6.8783866    2.2927329 0.0037833876 0.0038154072          100    6.0669034    841.32777    1.0269482 
   50600   0.71510983    -6.893594    2.2959499 0.0037812087 0.0038158063          109    5.6634631    845.97286    1.0213094 
   50700    0.7149209   -6.8532301    2.3097695 0.0037964653 0.0038162586          116    5.8156501    847.07821    1.0199767 
   50800    0.7317939   -6.8858314    2.3068724 0.0037842394 0.0038166443          123    5.5621838    848.54211     1.018217 
   50900   0.72354141   -6.8417077    2.3012987 0.0037676796  0.003816781          119    6.0036957    845.37419    1.0220326 
   51000   0.68421829   -6.8421314    2.3066628 0.0037690569 0.0038170418          136    6.0695636    844.18861     1.023468 
   51100   0.71801692    -6.843353    2.3322464 0.0038034024 0.0038173745           95    5.5038109    851.58969    1.0145731 
   51200   0.69748716   -6.8647013     2.312348 0.0037635871  0.003817577          131    5.4832274    850.21063    1.0162188 
   51300   0.69262452   -6.8952703    2.3265896 0.0037793852 0.0038176274          142    5.4495843    848.50002    1.0182675 
   51400   0.71292127   -6.8916155    2.3384632 0.0037912826 0.0038178353          165    5.6555047    846.83774    1.0202663 
   51500   0.72294695   -6.8527812    2.3497075 0.0038021157 0.0038183229          118    5.5708845    850.09262    1.0163598 
   51600   0.70534836   -6.8101685    2.3510474 0.0037969112 0.0038187806           85    5.9329947    848.29749    1.0185106 
   51700   0.71115914   -6.8942298    2.3488945 0.0037860968  0.003819192          111    5.8595857    843.24108     1.024618 
   51800   0.70382867   -6.9342961    2.3582953 0.0037939114 0.0038195167           99    5.4223038    846.33103    1.0208771 
   51900   0.71402222    -6.898486     2.369762 0.0038050129 0.0038198363           96     4.939165    855.89456    1.0094701 
   52000   0.69597446   -6.8667693    2.3776657 0.0038103616 0.0038203439          100     5.744348    846.81039    1.0202992 
   52100   0.69390728   -6.8921812    2.3735913 0.0037965311 0.0038208467           94    5.7087571    845.64299    1.0217077 
   52200   0.70649427    -6.896094    2.3764885 0.0037938832 0.0038210852           46    5.2910611    850.25778    1.0161624 
   52300   0.66763923   -6.8499854    2.3887678 0.0038061947 0.0038214943          102    5.5635364    849.80367    1.0167054 
   52400   0.67878521   -6.8709517    2.3927321 0.0038052356 0.0038219353          105     5.732025    846.45092    1.0207325 
   52500   0.73505434   -6.8750511    2.3845475 0.0037849959 0.0038222688          113    5.5701426    848.88453    1.0178063 
   52600    0.7007053   -6.8561257    2.3960378  0.003796004 0.0038225866          102     5.653953    848.79781    1.0179103 
   52700   0.68262813   -6.8479248    2.4127602 0.0038152438 0.0038229936          123    5.5162819    850.91937    1.0153724 
   52800    0.6877452   -6.8458128     2.402798 0.0037922948 0.0038233357          134    5.5691698    849.90618    1.0165828 
   52900   0.65965296    -6.855894    2.4168979 0.0038073375 0.0038236967          104    5.7486173    846.33279     1.020875 
   53000   0.70733383    -6.820422    2.4451772 0.0038446182 0.0038245479          112    5.8426109    848.32221    1.0184809 
   53100   0.68872068   -6.8339921    2.4686817 0.0038742651 0.0038258177           94    5.7394699    849.40911    1.0171777 
   53200   0.69416828   -6.8524403    2.4890929 0.0038989551 0.0038273258          106    5.6979812    848.12632    1.0187162 
   53300   0.70721831   -6.8337598    2.4798197 0.0038771414 0.0038288087          101    5.7793757    848.46134    1.0183139 
   53400   0.69002079   -6.8627827     2.503701 0.0039071489 0.0038301741          118    4.9436768    857.01201    1.0081539 
   53500   0.66635679   -6.8653678    2.4950311 0.0038863413 0.0038316309          129    5.4256043    850.58998    1.0157656 
   53600   0.66706645   -6.8859305    2.4975755 0.0038830465  0.003833006          124    5.4989959    848.02224    1.0188412 
   53700   0.70321794   -6.8493115    2.5029442 0.0038841468 0.0038343353          107    5.7676873    847.71643    1.0192087 
   53800   0.70868963   -6.8662307    2.5068302 0.0038829463 0.0038356323          107    5.2925685    852.97395    1.0129266 
   53900   0.69079612   -6.8824254    2.4927215 0.0038539293 0.0038367367          126    5.5696421    847.46146    1.0195154 
   54000   0.67942604   -6.8253764    2.5001422 0.0038582441 0.0038376234          140    5.9882283    845.88322    1.0214176 
   54100   0.70129346   -6.8471312    2.5270697 0.0038925903 0.0038388988          105    5.5037112    850.88755    1.0154103 
   54200   0.67656586   -6.9008691    2.5146862 0.0038663687 0.0038401591          133    5.3611279    849.37463     1.017219 
   54300   0.70360931   -6.8504113    2.5115225  0.003854393 0.0038411508          126    6.3342079    840.01922    1.0285479 
   54400   0.71612065   -6.8458521    2.5551233 0.0039140981 0.0038426448          106    6.2125031    842.29815     1.025765 
   54500   0.68581262   -6.8620286    2.5932396 0.0039651981 0.0038447753          112    5.3816687    851.24774    1.0149807 
   54600   0.68722737   -6.8369831    2.5802374 0.0039380913 0.0038468477          119    5.4368025    852.67751    1.0132787 
   54700   0.68538053   -6.8961317    2.5722167 0.0039186725 0.0038484334          139    5.4543094    848.76966     1.017944 
   54800   0.68379083   -6.8635103    2.5882518  0.003935906 0.0038502229          153    5.8867984    844.53201    1.0230518 
   54900   0.66167797   -6.7830013    2.6027884  0.003950802    0.0038523          156     5.981073    848.73706    1.0179831 
   55000   0.70137835    -6.864011    2.5954603 0.0039325156 0.0038541164          142    5.2924105    852.68595    1.0132687 
   55100   0.68785623   -6.8632807     2.596888 0.0039275378 0.0038557257          118    5.4292243    850.87662    1.0154234 
   55200   0.70083752   -6.9344409    2.6058601 0.0039339675 0.0038574879          151    5.2138245    848.33656    1.0184637 
[...]
   89400   0.72275605   -7.4868803    3.2939461 0.0030704196 0.0033872068          855    5.6647581    807.34293    1.0701772 
   89500   0.70356905   -7.4570147    3.2923851 0.0030655354 0.0033840488          851    5.1065347     814.8645     1.060299 
   89600   0.68777094    -7.460617    3.2952198 0.0030647506 0.0033807814          858    5.4469666    811.19412    1.0650965 
   89700   0.68428254   -7.4726964    3.2844531 0.0030513314  0.003377561          860    5.8070385    806.07306    1.0718631 
   89800   0.71915516   -7.4294837    3.2964862    0.0030591 0.0033743524          852    5.7734845    809.70199    1.0670593 
   89900   0.75654525   -7.4596932    3.3030771 0.0030618067  0.003371251          853    5.6472516    809.71236    1.0670456 
   90000   0.72403636   -7.4773335    3.2892434 0.0030455957 0.0033680703          854    5.8448672    805.96258    1.0720101 
   90100   0.68080838   -7.4422261    3.2516827 0.0030074756 0.0033647263          854    6.1990849    803.76102    1.0749464 
   90200   0.72529013   -7.4631304    3.2524925 0.0030048896 0.0033612401          854    5.3839748    812.20956    1.0637649 
   90300   0.68336306   -7.4331596    3.2660391 0.0030140634 0.0033577944          855    5.6992512    809.66516    1.0671078 
   90400   0.67061069   -7.4956421    3.2862527 0.0030293627 0.0033544176          858    5.6110991    806.87696    1.0707952 
   90500   0.70560524   -7.4715879    3.2780506 0.0030184628 0.0033511316          861    5.9999182    804.51823    1.0739346 
   90600   0.72498965   -7.5009465    3.2886323 0.0030248641 0.0033478118          855    5.2539252    811.03092    1.0653108 
   90700   0.70870421   -7.4782351    3.2942629 0.0030267024 0.0033445671          858    5.5685463    808.63522    1.0684669 
   90800   0.66267517    -7.457539     3.282229 0.0030123247 0.0033412699          856    5.9173715    806.08051    1.0718532 
   90900   0.71712325    -7.456697    3.3013519 0.0030265419 0.0033380339          857    5.7182092    808.31688    1.0688877 
   91000   0.69639655   -7.4423493    3.2924995 0.0030151094 0.0033348083          853    5.7652041    808.65046    1.0684468 
   91100   0.68237103   -7.4066419     3.287388  0.003007124 0.0033315754          857    6.0143891     808.0535    1.0692361 
   91200   0.68616195   -7.5022502    3.2659957 0.0029842797 0.0033281907          854    5.2887557    810.13072    1.0664946 
   91300      0.70991   -7.4436098    3.2618346  0.002977213 0.0033247162          854    5.7077337    809.36225    1.0675072 
   91400   0.71057838   -7.4313326    3.2761528 0.0029870102 0.0033213125          854    5.9205484    807.39942    1.0701023 
   91500   0.68709202   -7.4658718      3.29529 0.0030011749 0.0033179538          851    5.3825854    811.08022     1.065246 
   91600   0.74559802   -7.4637473    3.3089341 0.0030103112 0.0033147335          860    5.4545954    810.94798    1.0654198 
   91700   0.69823553   -7.4116933    3.3000941  0.002998995 0.0033115346          856    6.1071831     806.8857    1.0707836 
   91800   0.69260383   -7.4916555    3.3127643 0.0030072298 0.0033083481          859    5.2922222    810.91658     1.065461 
   91900   0.68382095   -7.4393627    3.2889919 0.0029824011 0.0033051054          858    5.8991398    807.20037    1.0703662 
   92000   0.72424432   -7.4628244    3.2967435 0.0029861807 0.0033018033          854    5.4241269    811.17373    1.0651232 
   92100   0.70637199   -7.4792438    3.2713246  0.002959939 0.0032984299          857    5.4920049    809.41061    1.0674434 
   92200    0.6660789   -7.4558826    3.2666765 0.0029525275 0.0032949359          860    6.0041049    805.03021    1.0732516 
   92300   0.70724593   -7.4856737    3.2576974 0.0029412219 0.0032914665          856    5.5923324    807.81808    1.0695477 
   92400   0.72410603    -7.408701    3.2668128 0.0029462598 0.0032880197          860    6.1346536    806.88287    1.0707874 
   92500   0.70423333   -7.4788567    3.2986772 0.0029717813 0.0032846698          861    5.4870556    809.37438    1.0674912 
   92600   0.68199859    -7.472615    3.3024555 0.0029719722  0.003281414          859    5.5972904    808.05672    1.0692319 
   92700    0.7283388   -7.4452653     3.301566 0.0029679665 0.0032781305          857     5.794927    808.49853    1.0686476 
   92800   0.71948783   -7.4385101    3.3029764 0.0029660348  0.003274928          861    5.7772449    809.00959    1.0679725 
   92900   0.68880589   -7.4547038    3.3023006 0.0029622359 0.0032716312          855    5.6949202    808.20631     1.069034 
   93000   0.68058315   -7.4915159    3.3074392 0.0029636552 0.0032683839          857    5.3125295     810.2498    1.0663378 
   93100   0.70264097   -7.4121664    3.2782512 0.0029343458 0.0032650106          852    5.7631561    810.74858    1.0656818 
   93200   0.69059648    -7.444166    3.2746417 0.0029279701 0.0032615927          855    5.7587361    808.71181    1.0683658 
   93300   0.70429551   -7.5091404    3.2392783  0.002893246 0.0032579924          858    5.4126519    808.29448    1.0689174 
   93400   0.69832603   -7.4947227    3.2689823 0.0029166508 0.0032544286          851    5.5805249    807.47365     1.070004 
   93500   0.72852363   -7.4179309    3.2487986 0.0028955424 0.0032509351          850    6.2366149     805.3671    1.0728027 
   93600   0.73776346    -7.470646    3.2831308 0.0029230153 0.0032475176          857    6.0308082     804.2173    1.0743365 
   93700   0.69340648   -7.4886935     3.282407 0.0029192521 0.0032441539          859     5.498351    808.59865    1.0685153 
   93800   0.69255636   -7.4115881    3.2914473 0.0029241714 0.0032407773          858    5.5061722     813.1576    1.0625247 
   93900   0.71001175    -7.457507    3.2924739 0.0029219683 0.0032374049          858     5.138845      814.917    1.0602307 
   94000   0.69172659   -7.4431002    3.2801625 0.0029079454 0.0032340063          857    5.9755508    806.05552    1.0718865 
   94100   0.73494477   -7.4781877    3.2854345  0.002909524 0.0032306408          856    5.8835588    805.45932    1.0726799 
   94200   0.68268063   -7.4434557    3.2867004 0.0029075551 0.0032273009          857    5.6570779    809.18948    1.0677351 
   94300   0.69237748   -7.4851579    3.2865777 0.0029043635 0.0032239195          859    5.6660078    806.89756    1.0707679 
   94400   0.73346537   -7.4959117    3.2958109 0.0029094375 0.0032205806          857     5.679716    806.77986    1.0709241 
   94500   0.72152803   -7.4208942    3.2848611 0.0028967029 0.0032172424          856    6.0670472    806.95653    1.0706896 
   94600   0.68875081   -7.4879678    3.2882754 0.0028966485 0.0032138913          854    5.3354846     810.6908    1.0657577 
   94700   0.68629563   -7.4883571    3.2781072  0.002884642 0.0032105027          852    5.5085111     808.5312    1.0686044 
   94800   0.72121478   -7.4478946    3.2539905 0.0028603995 0.0032069772          857    5.9496859    806.55416    1.0712238 
   94900   0.68715353   -7.4902486     3.263362 0.0028656146 0.0032034644          853    5.5027284    808.62054    1.0684863 
   95000   0.68187162   -7.4978024    3.2753176 0.0028730856 0.0031999569          859    5.7125792    805.84771    1.0721629 
   95100   0.68958006   -7.4320796    3.2795949 0.0028738126 0.0031965432          851    5.6277944    810.83127    1.0655731 
   95200   0.68148631   -7.4325895    3.2719422  0.002864095 0.0031930806          858    5.7958204    808.63126    1.0684722 
   95300   0.65327202   -7.4753347     3.284627 0.0028721817 0.0031896485          857    5.7189337    806.71927    1.0710045 
   95400   0.70445935   -7.4922603    3.3104394 0.0028917185 0.0031863053          854    5.3538487    810.32486     1.066239 
   95500   0.68865829   -7.3947204    3.3000166 0.0028795956 0.0031830537          853    6.3576462    804.86111    1.0734771 
   95600   0.69445889   -7.4890047    3.2949041  0.002872127 0.0031797664          859    5.5048282    808.90318     1.068113 
   95700   0.70041911   -7.4972441    3.2691263 0.0028466791 0.0031763394          858    5.3032325    810.51518    1.0659887 
   95800   0.68484641   -7.4731565    3.2699167 0.0028443952 0.0031727986          860    5.5018888     809.4532    1.0673872 
   95900   0.71533117   -7.4268985    3.2750611 0.0028458995 0.0031693069          858    5.7096339      810.216    1.0663823 
   96000   0.73350153   -7.5219987    3.2651774 0.0028343554 0.0031658435          854     5.598892    805.98282    1.0719831 
   96100   0.70787605    -7.486324    3.2624081 0.0028290045 0.0031623214          856    5.9347512    804.23671    1.0743106 
   96200   0.70075826   -7.4358838    3.2732122 0.0028354228 0.0031588478          850    5.5838136     811.0024    1.0653483 
   96300   0.66899338   -7.4678102    3.3018074 0.0028572235 0.0031554581          851    5.0781597     814.6803    1.0605387 
   96400   0.68594446   -7.4703176    3.2824203 0.0028375002 0.0031520544          853    5.6228937    808.18388    1.0690636 
   96500   0.70839708   -7.4567985    3.2878289 0.0028392305 0.0031486884          857     5.971217    805.68261    1.0723826 
   96600   0.71743357    -7.482001    3.2928671 0.0028406376 0.0031453469          858    5.8072224    806.02624    1.0719254 
   96700   0.68343552    -7.511487    3.2817103 0.0028280854 0.0031419745          859    5.4867788    807.29378    1.0702424 
   96800   0.69175994   -7.4525665    3.2814114 0.0028249065 0.0031385302          859    5.3393434    812.80315     1.062988 
   96900   0.72220878   -7.4596847    3.2545223 0.0027988668 0.0031350473          858    5.8168363     807.1459    1.0704384 
   97000   0.71280903   -7.4901814    3.2646555 0.0028046868 0.0031315126          855    5.7363439    806.32708    1.0715255 
   97100   0.69738862   -7.4498253    3.2912147  0.002824592 0.0031280629          855    5.8231765    807.52998    1.0699293 
   97200   0.68299145   -7.4365166    3.2964674 0.0028261895 0.0031246846          851    5.5224547    811.40287    1.0648225 
   97300   0.67172665   -7.4666356    3.2826172 0.0028114228 0.0031213333          847    6.0122862    804.23628    1.0743111 
   97400   0.70624487   -7.4647894    3.2866524 0.0028119887 0.0031179729          846    5.5886792    809.41588    1.0674364 
   97500   0.71122472   -7.4714177    3.2890953 0.0028111925 0.0031145998          855    5.5445501    809.10886    1.0678415 
   97600   0.69362765   -7.4772696    3.2605413 0.0027839321 0.0031111787          857    5.7621091    806.73266    1.0709868 
   97700   0.72789758    -7.450744    3.2905203 0.0028066532  0.003107758          858    5.9204108    806.58717    1.0711799 
   97800   0.72439581   -7.4163487    3.2833579 0.0027976806 0.0031044263          856    6.1432001    806.30573    1.0715538 
   97900    0.7248622   -7.5330516    3.3053539 0.0028135461 0.0031011173          860    5.3595818    807.99179    1.0693178 
   98000   0.64043004   -7.4476976    3.2939167 0.0028009495 0.0030978156          860    5.7232425    808.21262    1.0690256 
   98100   0.68161672   -7.4594391    3.2854117 0.0027908696 0.0030944005          860    5.2281552    813.17866    1.0624971 
   98200    0.6987131   -7.4719348    3.2762202 0.0027802276 0.0030909744          852    5.4934754    809.95019    1.0667323 
   98300   0.69931614   -7.5148616     3.262997 0.0027661893 0.0030874515          861    5.8350332    803.39526    1.0754358 
   98400   0.70077612   -7.4546423    3.2848109 0.0027818521 0.0030840074          854    5.6893283    808.84535    1.0681894 
   98500   0.70949194   -7.4890449    3.2690756 0.0027657154 0.0030805753          853    5.1338704    812.85488    1.0629204 
   98600   0.70098211   -7.4801416    3.2800338 0.0027721719 0.0030770828          860    5.5986736    808.07289    1.0692105 
   98700   0.68513018   -7.4988185    3.2762433 0.0027661629 0.0030736949          855     5.472107    808.32605    1.0688756 
   98800   0.69260775   -7.4397107    3.2952276 0.0027793755 0.0030702825          856    5.6398603    810.10982    1.0665221 
   98900   0.69877694   -7.4449456    3.2915433 0.0027734608 0.0030669238          853    5.3558727    812.63436    1.0632088 
   99000   0.70180765   -7.4815765    3.2823793 0.0027629456 0.0030635156          856    5.2614249    811.93535    1.0641241 
   99100   0.69732621   -7.4641054     3.272422 0.0027517844 0.0030600782          854    6.0776043     803.7676    1.0749376 
   99200   0.73037106   -7.5148948    3.2594534 0.0027381161 0.0030566022          856    5.9021788    803.14285    1.0757738 
   99300   0.71251658   -7.4536492    3.2754091 0.0027487488 0.0030531832          856    5.8525132    807.36449    1.0701486 
   99400    0.6878439   -7.4493598    3.2779804 0.0027481391 0.0030497986          857    6.0026454    805.58869    1.0725076 
   99500   0.67709336    -7.544208    3.2819073  0.002748666 0.0030464245          854    5.4559642    805.63445    1.0724467 
   99600   0.67825865   -7.4675572    3.2672953 0.0027336808 0.0030430009          851    5.8030683    806.61351     1.071145 
   99700   0.70145888   -7.4546214    3.2753705 0.0027376885  0.003039584          848    5.7153566    808.73719    1.0683322 
   99800   0.71394013   -7.5066203    3.2725064 0.0027325537 0.0030361722          843    5.1331129    811.92586    1.0641366 
   99900   0.71355464   -7.4852841    3.2723975 0.0027297276 0.0030327445          853    5.9958006    803.86356    1.0748093 
  100000   0.72670092   -7.4454951    3.2724841 0.0027270701  0.003029346          851    6.0151956    805.85575    1.0721522 
  100100   0.68346584   -7.4774453    3.2831943  0.002733262 0.0030259346          851    5.4247175    810.01499    1.0666469 
  100200   0.67787639   -7.5123859     3.269189 0.0027188863 0.0030224705          853    5.2689691    809.56684    1.0672374 
  100300   0.69185581   -7.4510781    3.2772001 0.0027228315 0.0030190528          854     5.868983    806.76616    1.0709423 
  100400    0.7199149   -7.4572289    3.2889674 0.0027298866 0.0030157143          856    5.9440004    805.98921    1.0719747 
  100500   0.67726857   -7.4790841    3.2903396 0.0027283081  0.003012404          853    5.7671691    806.30295    1.0715575 
  100600   0.68227293   -7.4769178     3.279803 0.0027168679 0.0030090522          849     5.853761    805.35931    1.0728131 
  100700   0.73269387   -7.4487591    3.2874246 0.0027204772 0.0030057345          850    6.2966102    802.92078    1.0760713 
  100800   0.70104684   -7.4909808    3.2927208 0.0027221567 0.0030024392          851     5.411557    809.42096    1.0674297 
  100900   0.69533413   -7.5270009    3.2988722 0.0027245393 0.0029990873          854    4.7759684    814.58585    1.0606617 
  101000    0.6675335   -7.4370114    3.2710565 0.0026988915  0.002995655          855    5.8630554    807.72472    1.0696714 
  101100   0.69209842   -7.4349128    3.2990484 0.0027192948 0.0029923072          861    5.6377914    810.29264    1.0662814 
  101200   0.71579111   -7.4660014    3.2806616 0.0027014671  0.002988964          853    5.4937359    810.38117     1.066165 
  101300   0.67849668    -7.486697    3.3035267   0.00271761 0.0029856404          846    5.4783441    808.82257    1.0682194 
  101400   0.70284037    -7.469963    3.2972035 0.0027097333 0.0029823566          852    5.6348488    808.25629    1.0689679 
  101500   0.68801183   -7.4478263    3.3063286 0.0027145555 0.0029791224          847    5.7985228    807.88187    1.0694633 
  101600   0.73280918   -7.4510477    3.2997545 0.0027064916 0.0029758434          845    5.3997687    812.19698    1.0637814 
  101700   0.69350606   -7.4397859    3.2984158 0.0027027333 0.0029726075          851     5.746985     808.5991    1.0685147 
  101800   0.68520616   -7.4409154    3.2918745 0.0026947237 0.0029693113          851    5.9744058    806.41777     1.071405 
  101900   0.71022751   -7.4546798      3.29935 0.0026981927 0.0029660483          857    5.8104729    807.56856    1.0698782 
  102000   0.67291199   -7.4992382    3.3039952 0.0026993425 0.0029627691          852    5.3181643    809.64237    1.0671378 
  102100   0.71641399   -7.4996823    3.3024577 0.0026954437 0.0029595305          854    5.2942666    810.32494    1.0662389 
  102200   0.72800244   -7.4479602    3.3000584   0.00269085 0.0029562846          850    6.1984059    804.06218    1.0745438 
  102300   0.72981213   -7.4904546    3.2969634 0.0026856984 0.0029530665          851    5.6577386    807.16946    1.0704072 
  102400   0.68684848   -7.5028093    3.2912114 0.0026783947 0.0029498198          849    5.6382948    806.14119    1.0717726 
  102500   0.70417591    -7.482076    3.3074647 0.0026889956  0.002946567          860    5.5398743    808.36087    1.0688296 
  102600   0.70605859   -7.4440282    3.3110397 0.0026892785 0.0029433253          851    5.5470283    811.02005    1.0653251 
  102700   0.71127154   -7.4729891    3.2892669 0.0026689929 0.0029400707          850    5.7996295    806.66207    1.0710805 
  102800   0.69045062   -7.4918637    3.2716008 0.0026520759 0.0029367061          848    5.6873844    806.40228    1.0714255 
  102900   0.70176247   -7.4306701    3.2980642 0.0026709299 0.0029333942          853     5.739187    809.45537    1.0673844 
  103000   0.70900385   -7.4807218    3.2918155 0.0026632811 0.0029301197          851    5.5319299    809.07858    1.0678814 
  103100   0.68609624   -7.4930018    3.3119392 0.0026769634 0.0029268582          840    5.3643651    809.91448    1.0667793 
  103200   0.71665971   -7.4234215    3.2995946 0.0026644013 0.0029236595          844    6.1362224    805.88868    1.0721084 
  103300   0.72730589      -7.4393    3.2800486 0.0026460541 0.0029204269          845    6.0945077     805.5236    1.0725943 
  103400   0.67527574   -7.4734393    3.2855441  0.002647924 0.0029170967          847    5.4879629    809.33179    1.0675473 
  103500   0.69519281   -7.4919883    3.3101885 0.0026652081 0.0029138472          840    5.1444511    812.25574    1.0637044 
  103600   0.71207945   -7.4608522     3.278433 0.0026370922 0.0029105536          848    5.9777706    805.30687    1.0728829 
  103700   0.69450181   -7.4487968    3.3038304 0.0026549585 0.0029073169          853    6.1098503     804.3014    1.0742242 
  103800   0.72618094   -7.4504068    3.3017951 0.0026507668 0.0029041507          848    5.7645849    808.35306    1.0688399 
  103900   0.68431863   -7.4824024    3.3031146 0.0026492738 0.0029009144          848     5.263294    811.67682    1.0644631 
  104000   0.68783181    -7.496076    3.3145161 0.0026558623 0.0028976887          861      5.64373    806.67866    1.0710585 
Loop time of 191.564 on 12 procs for 100000 steps with 864 atoms

Performance: 90204.783 tau/day, 522.018 timesteps/s
99.4% CPU use with 12 MPI tasks x no OpenMP threads

MPI task timing breakdown:
Section |  min time  |  avg time  |  max time  |%varavg| %total
---------------------------------------------------------------
Pair    | 9.7657     | 10.731     | 11.604     |  17.7 |  5.60
Neigh   | 1.0188     | 1.0617     | 1.1033     |   2.4 |  0.55
Comm    | 6.9838     | 8.0216     | 9.0875     |  23.1 |  4.19
Output  | 2.323      | 2.3239     | 2.3313     |   0.1 |  1.21
Modify  | 167.23     | 167.59     | 167.85     |   1.5 | 87.48
Other   |            | 1.84       |            |       |  0.96

Nlocal:        72.0000 ave          76 max          67 min
Histogram: 1 0 2 1 2 0 1 2 2 1
Nghost:        1648.92 ave        1662 max        1637 min
Histogram: 1 1 2 1 2 1 1 0 1 2
Neighs:        8866.00 ave        9866 max        7726 min
Histogram: 1 1 1 1 2 0 2 2 1 1
FullNghs:      17732.8 ave       18789 max       16388 min
Histogram: 1 0 2 1 2 0 1 2 2 1

Total # of neighbors = 212793
Ave neighs/atom = 246.28819
Neighbor list builds = 4640
Dangerous builds = 0

#clear
#
#next RN
#
#jump SELF



Total wall time: 0:03:12
