
units lj                  # Use reduced LJ style units
atom_style atomic         # Uncharged point particles
atom_modify map hash      # Needed for indexing of clusters etc
                          # Used to be able to find where atoms are in relation to each other.

# Define a lattice with which to populate the simulation cell. With units
# set to 'lj' the second argument to the lattice command is the reduced
# density rho* and the spacings are multiples of that required to acheive
# that density. Also define a simulation cell called 'box' in lattice units
# and fill it with atoms. Here we're creating a box which is ten lattice
# constants in each direction.
lattice fcc 1.0 spacing 1 1 1                 # All equal sizes - gives the right reduced density.
Lattice spacing in x,y,z = 1.5874011 1.5874011 1.5874011

region box block 0 6 0 6 0 6 units lattice # Defines a region, "box", in lattice units
create_box 1 box                              # Creates a simulation box as specified above,
Created orthogonal box = (0.0000000 0.0000000 0.0000000) to (9.5244063 9.5244063 9.5244063)
  2 by 2 by 3 MPI processor grid
                                              # with one type of atom
create_atoms 1 box                            # Creates particles on lattice points
Created 864 atoms
  using lattice units in orthogonal box = (0.0000000 0.0000000 0.0000000) to (9.5244063 9.5244063 9.5244063)
  create_atoms CPU = 0.001 seconds


# Set the mass of the first (and only) atom type.
mass 1 1.0

# Lennard-Jones interactions between particles, 3.5 sigma cut-off. Apply
# long range tail corrections to energy and pressure and set all coefficients
# to unity since we work in reduced units here. Note that this doesn't shift
# the potential such that it goes to zero at the cutoff. That would require
# pair_modify('shift', 'yes').
pair_style lj/cut  3.5      # non-GPU version
pair_modify tail  yes
pair_coeff 1  1  1.0  1.0   # Intearaction between 1 and 1 set with epsilon = 1 and sigma = 1

write_data data.*
System init for write_data ...
Neighbor list info ...
  update every 1 steps, delay 10 steps, check yes
  max neighbors/atom: 2000, page size: 100000
  master list distance cutoff = 3.8
  ghost atom cutoff = 3.8
  binsize = 1.9, bins = 6 6 6
  1 neighbor lists, perpetual/occasional/extra = 1 0 0
  (1) pair lj/cut, perpetual
      attributes: half, newton on
      pair build: half/bin/atomonly/newton
      stencil: half/bin/3d
      bin: standard

#############################
#   M E L T   S Y S T E M   #
#############################

velocity all create 2.4 2750902 mom yes dist gaussian # Assign velocities
                                                    # Temperature 2.4, random number seed, zero linear momentum
						                                                        # Gaussian distribution

timestep 0.002   # simulation timestep
thermo 100       # output thermodynamic data every 100 steps

# Define a fix  in this case with index 1 applied to all
# particles in the simulation. This fix is for simulations
# in the anisotropic NPT ensemble. Note that we use the MTK
# correction.
fix 1 all npt temp 2.4 2.4 0.1 iso 5.68 5.68 0.5 mtk yes tchain 5 pchain 5 # Use NPT ensemble
                                                                         # Set temperature and pressure and damping
                                                                         # Numbers of thermostats in chain and in barostat
run 1000         # run for 10000 steps
Per MPI rank memory allocation (min/avg/max) = 3.633 | 3.633 | 3.634 Mbytes
Step Temp E_pair E_mol TotEng Press Volume 
       0          2.4   -8.3859253            0    -4.790092     -2.24275          864 
     100    1.3007594   -6.4407842            0   -4.4919034    5.3582762    891.69205 
     200    1.5828213   -6.0796178            0   -3.7081338    6.4338598    907.46239 
     300    1.7629056     -5.73851            0   -3.0972122    5.5953229    954.02439 
     400    1.8733232   -5.2785237            0   -2.4717912    6.0585808    994.36537 
     500      2.02574   -4.9360708            0   -1.9009777    5.7478153    1042.8978 
     600    2.2112838   -4.6895875            0   -1.3765009    5.7138268    1079.0368 
     700    2.3146746   -4.4629638            0  -0.99497044    5.6088298    1118.0222 
     800    2.4734008     -4.39503            0   -0.6892229    5.7937797    1123.7282 
     900    2.4206618   -4.2767239            0  -0.64993368    5.5531987    1146.9555 
    1000    2.3618098   -4.2459295            0  -0.70731524    5.7000582    1143.3852 
Loop time of 0.222769 on 12 procs for 1000 steps with 864 atoms

Performance: 775691.322 tau/day, 4488.954 timesteps/s
99.8% CPU use with 12 MPI tasks x no OpenMP threads

MPI task timing breakdown:
Section |  min time  |  avg time  |  max time  |%varavg| %total
---------------------------------------------------------------
Pair    | 0.070098   | 0.087667   | 0.13027    |   6.8 | 39.35
Neigh   | 0.01205    | 0.014248   | 0.020735   |   2.3 |  6.40
Comm    | 0.052841   | 0.10197    | 0.1216     |   7.2 | 45.78
Output  | 0.0001998  | 0.00020945 | 0.00027627 |   0.0 |  0.09
Modify  | 0.01605    | 0.016904   | 0.017617   |   0.3 |  7.59
Other   |            | 0.001768   |            |       |  0.79

Nlocal:        72.0000 ave          80 max          66 min
Histogram: 2 1 2 2 1 0 2 0 0 2
Nghost:        1314.75 ave        1327 max        1295 min
Histogram: 1 0 0 2 3 0 0 1 2 3
Neighs:        6211.67 ave        7136 max        5326 min
Histogram: 2 0 0 2 1 4 1 0 0 2

Total # of neighbors = 74540
Ave neighs/atom = 86.273148
Neighbor list builds = 80
Dangerous builds = 2

# Equilibrate just above the melting temperature to avoid step fn in T

fix 1 all npt temp 1.25 1.25 0.1 iso 5.68 5.68 0.5 mtk yes tchain 5 pchain 5
run 1000
Per MPI rank memory allocation (min/avg/max) = 3.634 | 3.634 | 3.634 Mbytes
Step Temp E_pair E_mol TotEng Press Volume 
    1000    2.3618098   -4.2459295            0  -0.70731524    5.7000582    1143.3852 
    1100    1.8617945   -4.5967525            0    -1.807293    5.9593679    1083.5566 
    1200      1.66126   -5.0091582            0   -2.5201524    5.9308167    1028.0056 
    1300    1.4533368   -5.3154554            0   -3.1379734    5.5185254    997.93023 
    1400    1.3100587   -5.5224566            0    -3.559643    5.2858775     978.0358 
    1500    1.3306301   -5.7450087            0   -3.7513736    5.2687861    956.68836 
    1600    1.2302857    -5.777427            0   -3.9341343     5.385203    950.58576 
    1700    1.2545134   -5.8251615            0   -3.9455694    5.6370291    940.07281 
    1800    1.2669685   -5.8434457            0   -3.9451925    6.1076728    931.13358 
    1900    1.2975362   -5.8185374            0   -3.8744858    5.5765884    942.23221 
    2000    1.2225624   -5.8503078            0   -4.0185867    5.1330896    948.19804 
Loop time of 0.163057 on 12 procs for 1000 steps with 864 atoms

Performance: 1059754.936 tau/day, 6132.841 timesteps/s
99.8% CPU use with 12 MPI tasks x no OpenMP threads

MPI task timing breakdown:
Section |  min time  |  avg time  |  max time  |%varavg| %total
---------------------------------------------------------------
Pair    | 0.073661   | 0.077642   | 0.082256   |   1.2 | 47.62
Neigh   | 0.010171   | 0.010667   | 0.011346   |   0.4 |  6.54
Comm    | 0.053348   | 0.058421   | 0.062862   |   1.5 | 35.83
Output  | 0.00018282 | 0.0001908  | 0.00024938 |   0.0 |  0.12
Modify  | 0.014107   | 0.01433    | 0.014601   |   0.1 |  8.79
Other   |            | 0.001805   |            |       |  1.11

Nlocal:        72.0000 ave          79 max          65 min
Histogram: 1 1 0 4 0 1 1 3 0 1
Nghost:        1466.08 ave        1476 max        1447 min
Histogram: 1 1 0 0 2 0 0 4 1 3
Neighs:        7466.67 ave        8131 max        6694 min
Histogram: 1 0 2 0 3 1 3 0 0 2

Total # of neighbors = 89600
Ave neighs/atom = 103.70370
Neighbor list builds = 67
Dangerous builds = 0


# Small amount of linear quench

fix 1 all npt temp 1.25 ${temp} 0.1 iso 5.68 5.68 0.5 mtk yes tchain 5 pchain 5
fix 1 all npt temp 1.25 0.83 0.1 iso 5.68 5.68 0.5 mtk yes tchain 5 pchain 5
run 2000
Per MPI rank memory allocation (min/avg/max) = 3.634 | 3.634 | 3.634 Mbytes
Step Temp E_pair E_mol TotEng Press Volume 
    2000    1.2225624   -5.8503078            0   -4.0185867    5.1330896    948.19804 
    2100    1.2500156   -5.8633927            0   -3.9905394    5.4114004    941.30933 
    2200    1.2242327   -5.9093093            0   -4.0750856    5.8006001    929.20605 
    2300     1.174055   -5.9239873            0   -4.1649431    6.2944316    918.97218 
    2400    1.1761394   -5.9802889            0   -4.2181217    5.8982549    920.76533 
    2500    1.1189507   -5.9880546            0   -4.3115713    5.7575053    920.44014 
    2600    1.1155774   -6.0432649            0   -4.3718355    5.5617354    919.24014 
    2700    1.1075672   -6.0537216            0   -4.3942938    5.5664093    918.50283 
    2800     1.081892   -6.1389704            0   -4.5180107    5.7042318    909.11199 
    2900    1.0867808   -6.1282637            0   -4.4999793    5.8064814    908.52983 
    3000    1.0496845    -6.183146            0   -4.6104416    6.0922179    898.04078 
    3100    1.0230108   -6.2256863            0   -4.6929461    5.8055826    899.66055 
    3200   0.97369179   -6.2584326            0   -4.7995853    5.5090831    900.28206 
    3300   0.93848647   -6.3187431            0   -4.9126427    5.0765696     901.7377 
    3400   0.90686962   -6.3127681            0   -4.9540381    5.4007688    896.60482 
    3500   0.94301706   -6.3799505            0   -4.9670621    5.3873544    892.42048 
    3600   0.89179506    -6.353745            0   -5.0176007    5.6607702    888.75824 
    3700   0.90333371   -6.3554449            0   -5.0020126    5.9055595    885.49054 
    3800   0.90604557   -6.4469631            0   -5.0894677    5.8183775    879.75108 
    3900   0.83117543   -6.4231216            0   -5.1778014    6.1576588    875.22389 
    4000   0.84178956   -6.4917858            0   -5.2305629    5.8266815    875.43291 
Loop time of 0.337741 on 12 procs for 2000 steps with 864 atoms

Performance: 1023269.529 tau/day, 5921.699 timesteps/s
99.8% CPU use with 12 MPI tasks x no OpenMP threads

MPI task timing breakdown:
Section |  min time  |  avg time  |  max time  |%varavg| %total
---------------------------------------------------------------
Pair    | 0.15878    | 0.16677    | 0.17689    |   1.2 | 49.38
Neigh   | 0.017505   | 0.018343   | 0.019643   |   0.5 |  5.43
Comm    | 0.10673    | 0.11844    | 0.12744    |   1.6 | 35.07
Output  | 0.00038031 | 0.00039532 | 0.00051132 |   0.0 |  0.12
Modify  | 0.028871   | 0.029408   | 0.030065   |   0.2 |  8.71
Other   |            | 0.004386   |            |       |  1.30

Nlocal:        72.0000 ave          77 max          64 min
Histogram: 1 0 0 1 0 2 4 1 2 1
Nghost:        1562.00 ave        1582 max        1543 min
Histogram: 2 2 0 1 0 3 0 2 0 2
Neighs:        8145.75 ave        8906 max        7238 min
Histogram: 1 1 0 2 1 2 0 3 0 2

Total # of neighbors = 97749
Ave neighs/atom = 113.13542
Neighbor list builds = 114
Dangerous builds = 0

#############################
# F R E E Z E  S Y S T E M  #
#############################

# Define solid atoms. This closely follows ten Wolde  Ruiz-Montero and Frenkel  Faraday Discuss  1996  104  93-110
# Compute components of the per-atom q6 vector
compute q6 all orientorder/atom degrees 1 6 components 6 nnn NULL cutoff 1.3 # compute the Q6 parameter.
                                                                             # Use all neighbours within 1.3 unit cell.

# get number of connections
compute coord_number all coord/atom orientorder q6 0.5

# An atom is solid if it has 8 or more connections (of a possible 14)
variable is_solid atom c_coord_number>=8
group solid dynamic all var is_solid    # Must be dynamic to update
dynamic group solid defined

# do clustering
compute cluster solid cluster/atom 1.3 # Create a cluster where all atoms within are solid and max 1.3 units from another member

# define chunks one chunk per cluster
compute clus_chunks solid chunk/atom c_cluster nchunk every compress yes  # Says which atoms are in which chunk

# count the size of each chunk
compute size_chunks solid property/chunk clus_chunks count


# Find the maximum entry in the vector of chunk sizes
variable max_n equal max(c_size_chunks)


# Thermo style which includes this variable
# thermo_style custom step temp pe vol v_max_n

thermo ${N}  # Print the thermo information every 100 steps
thermo 100  

# Reset the npt fix at a lower temperature (below freezing)

compute myRDF all rdf 100
fix 2 all ave/time 1 50 100 c_myRDF[*] file pcf.rdf mode vector


compute msd all msd com yes
variable twopoint equal c_msd[4]/6/(step*dt+1.0e-6)
fix 9 all vector 10 c_msd[4]
variable fit equal slope(f_9)/6/(10*dt)
thermo_style custom step temp pe c_msd[4] v_twopoint v_fit v_max_n press vol density


fix 1  all npt temp  ${temp} ${temp}  0.1  iso  5.68  5.68  0.5  mtk yes tchain  5  pchain  5
fix 1  all npt temp  0.83 ${temp}  0.1  iso  5.68  5.68  0.5  mtk yes tchain  5  pchain  5
fix 1  all npt temp  0.83 0.83  0.1  iso  5.68  5.68  0.5  mtk yes tchain  5  pchain  5

dump dmp2 all dcd ${N} traj.dcd
dump dmp2 all dcd 100 traj.dcd
dump dmp3 all dcd ${N} traj_unwrap.dcd
dump dmp3 all dcd 100 traj_unwrap.dcd
dump_modify dmp3 unwrap yes


# fix rnuntil all halt ${N} v_max_n >= 3980 error soft message no   # Stop when solidified

run 100000 # 5000000  # Run for this many steps
Neighbor list info ...
  update every 1 steps, delay 10 steps, check yes
  max neighbors/atom: 2000, page size: 100000
  master list distance cutoff = 3.8
  ghost atom cutoff = 3.8
  binsize = 1.9, bins = 6 6 6
  5 neighbor lists, perpetual/occasional/extra = 1 4 0
  (1) pair lj/cut, perpetual
      attributes: half, newton on
      pair build: half/bin/atomonly/newton
      stencil: half/bin/3d
      bin: standard
  (2) compute orientorder/atom, occasional
      attributes: full, newton on
      pair build: full/bin/atomonly
      stencil: full/bin/3d
      bin: standard
  (3) compute coord/atom, occasional
      attributes: full, newton on
      pair build: full/bin/atomonly
      stencil: full/bin/3d
      bin: standard
  (4) compute cluster/atom, occasional
      attributes: full, newton on
      pair build: full/bin/atomonly
      stencil: full/bin/3d
      bin: standard
  (5) compute rdf, occasional, copy from (1)
      attributes: half, newton on
      pair build: copy
      stencil: none
      bin: none
Per MPI rank memory allocation (min/avg/max) = 9.699 | 9.704 | 9.706 Mbytes
Step Temp PotEng c_msd[4] v_twopoint v_fit v_max_n Press Volume Density 
    4000   0.84178956   -6.4917858            0            0 8.3333333e+20            8    5.8266815    875.43291   0.98694027 
    4100   0.82473129   -6.5303935  0.037886168 0.00077004397  0.034416983            5    5.8974573    871.18561   0.99175192 
    4200   0.84239867   -6.5980037  0.061113531 0.0012125699  0.026927952            3    5.8690365    866.82037    0.9967463 
    4300   0.80205467   -6.5067252  0.082524415 0.0015993102    0.0227461            4    6.0743029    869.81406   0.99331575 
    4400   0.81855596   -6.5243231   0.09937216 0.0018820483  0.020180999            6    5.6788558    874.21019   0.98832066 
    4500   0.84486452   -6.5322179   0.11049702 0.0020462408  0.018200136            5    5.7340469    872.87278   0.98983496 
    4600   0.84077007   -6.6455246   0.12009411 0.0021756176  0.016019879            8    5.3471018    870.16315   0.99291725 
    4700   0.82872868   -6.5776513   0.13213561 0.0023428297  0.014549309            4    5.8547376    867.60522   0.99584463 
    4800   0.86858267   -6.5528065   0.14587301 0.0025325174  0.013703646            7    5.5630243    874.34141   0.98817235 
    4900   0.85122322   -6.6055621   0.15372267 0.0026143309  0.012932863            5    5.3284038    873.26628   0.98938894 
    5000   0.81613597   -6.6281409   0.16825891  0.002804315  0.012362566            5    5.5595752     867.9578    0.9954401 
    5100   0.81254082   -6.6141113   0.18249831 0.0029819983  0.012011375            7    5.6800247    867.13455   0.99638517 
    5200   0.85866585   -6.5901775   0.19435896 0.0031147266  0.011799145            3    5.4364059    872.79141   0.98992725 
    5300   0.80857492   -6.5557369   0.20090009 0.0031588062   0.01153559            4    5.9617904    867.76846   0.99565729 
    5400   0.79581012   -6.5730374   0.20547182 0.0031708611  0.011160285            5    6.2018665    862.58984    1.0016348 
    5500   0.84687604   -6.5480801   0.21721277 0.0032911023  0.010801739            7    6.2394109    866.05685   0.99762504 
    5600   0.84612161   -6.5805231    0.2293562 0.0034130384  0.010530712           25    6.1352543     863.9543    1.0000529 
    5700   0.84661795   -6.6071211   0.25294232 0.0036979868  0.010476737           17    5.6103034    868.46528   0.99485842 
    5800   0.83470157   -6.5441068   0.26862172 0.0038595071  0.010541717           22    5.8007806    871.30194    0.9916195 
    5900   0.82449973   -6.5921957   0.28214282 0.0039850678  0.010598382           13    5.7576476    868.23688   0.99512013 
    6000    0.8358841   -6.5862641   0.29956332 0.0041606013  0.010663998            8    5.8483341    866.98073   0.99656194 
    6100   0.84610465   -6.5555123   0.31361902 0.0042844125  0.010758898            8    5.4950029    874.77853   0.98767857 
    6200   0.81114043   -6.5252134   0.32806234 0.0044094397  0.010802583            7    5.3397651    878.66881   0.98330564 
    6300    0.8227704   -6.5906266   0.33592201 0.0044434125  0.010843212            5    5.3123221    874.60927    0.9878697 
    6400     0.804283   -6.5787886   0.34020737 0.0044297831  0.010813669           15    5.5547951    871.58898   0.99129294 
    6500    0.8378313   -6.6238563   0.35298527 0.0045254518  0.010749719           35    5.4699773     869.8436   0.99328201 
    6600   0.80583274   -6.5887539   0.36919508 0.0046615537  0.010710941           38    6.1851072     862.6314    1.0015865 
    6700   0.80858733   -6.6273416   0.38566039 0.0047967707  0.010708813           57    5.8060089    863.88255     1.000136 
    6800   0.84052086   -6.5834177   0.39320187 0.0048186501  0.010710693           39      5.77754     868.9151   0.99434341 
    6900   0.83424381   -6.6082185   0.40436376 0.0048836199  0.010677089           53    6.0309145    862.43425    1.0018155 
    7000   0.82767099   -6.6107631   0.43214396 0.0051445706  0.010700058           33    6.3294451    859.10062    1.0057029 
    7100    0.8468201   -6.5930514   0.45334222 0.0053209177  0.010776914           45    5.7006352    868.64856   0.99464852 
    7200   0.81171326   -6.5874196   0.47078899 0.0054489462  0.010865795           44    5.5320792    871.83668   0.99101129 
    7300   0.84369626   -6.6272539   0.47624466 0.0054365825  0.010917447           11    5.2431976     872.5109   0.99024551 
    7400   0.79504164   -6.6365771   0.48047001  0.005410698   0.01093037            7    5.0831701    873.88019   0.98869389 
    7500   0.86008166   -6.6101641   0.49060842 0.0054512042   0.01092334           15    5.3817878    872.07233    0.9907435 
    7600   0.83710965   -6.5547462   0.51232569 0.0056176059  0.010934302           17    5.6504364    872.05244    0.9907661 
    7700   0.83954026   -6.6065886   0.51263221 0.0055479673  0.010933873           14    5.9042972    865.04655   0.99879018 
    7800    0.8217478   -6.5770716   0.51942172  0.005549377  0.010903988           23    6.1617814    863.35986    1.0007415 
    7900   0.86854163   -6.6098404   0.54000691 0.0056962751  0.010883922           34    5.9260424    865.03877   0.99879916 
    8000   0.81677117   -6.6114378   0.55219551 0.0057520362  0.010874794           13    5.7858392    866.09399   0.99758226 
    8100    0.8012231   -6.6369848   0.56465805 0.0058092388  0.010859053           11    5.6774984    865.60282   0.99814832 
    8200    0.8234247    -6.609763   0.57534533  0.005847005  0.010844655            5    5.5071256    870.28647   0.99277655 
    8300    0.8672477     -6.58991   0.58998835 0.0059235775  0.010828065            5    5.5006727     872.5307   0.99022304 
    8400   0.79815125   -6.5932627   0.59381588 0.0058910302  0.010795973           13    5.3352125    873.83255   0.98874779 
    8500   0.80163316   -6.6318225   0.61147582 0.0059948606  0.010765184           18    5.0297252    875.19853   0.98720458 
    8600   0.78931183   -6.6620828   0.61705233 0.0059791889  0.010734706           16    5.2469174    869.67419    0.9934755 
    8700   0.82989173   -6.5919203    0.6275478 0.0060109939  0.010699279           19    5.4635126     872.3072   0.99047675 
    8800   0.82805821    -6.542635   0.63821193 0.0060436732  0.010664569           22    6.0572874    867.49862     0.995967 
    8900   0.83745014   -6.6478219   0.64157351 0.0060072423  0.010629003           17    5.7969319    863.73838    1.0003029 
    9000   0.85935288   -6.6315483   0.64338128 0.0059572338   0.01057541           14    6.0298209    862.35007    1.0019133 
    9100   0.83708977   -6.6407497   0.65705901 0.0060170235  0.010519646           11    5.7626933    864.34891   0.99959634 
    9200   0.83669259   -6.6883163   0.67384499  0.006103668  0.010476607           17    5.4705828    864.41592   0.99951885 
    9300   0.80300695   -6.6367012   0.69264757 0.0062065191  0.010444877           15    5.6899447    865.50995   0.99825542 
    9400   0.82894324   -6.6051328   0.69762864 0.0061846507  0.010413039           38    5.6193382    869.33651    0.9938614 
    9500   0.83846695   -6.5586848   0.69200226 0.0060701949  0.010360278           24    5.9543648    867.84806   0.99556598 
    9600   0.79163357   -6.6079001   0.69646556 0.0060457076  0.010296415           22    5.7297545    867.61472   0.99583373 
    9700    0.8389206   -6.6198882   0.70960428 0.0060962564  0.010230859           14    5.0101174    877.08483   0.98508145 
    9800   0.83550716   -6.5881633   0.72808465 0.0061911957  0.010179351           17     5.149634    877.16173   0.98499509 
    9900   0.79392978   -6.6114214   0.73504138 0.0061872167  0.010127355           18    5.1583477    874.88251   0.98756117 
   10000    0.8289262   -6.5546835   0.74092998 0.0061744162  0.010077614           10    6.2066003     865.0797    0.9987519 
   10100   0.81784426   -6.6479332   0.76219201 0.0062887126  0.010039674           15    5.8764318    862.63163    1.0015863 
   10200   0.83719628   -6.6094739   0.78239444 0.0063921112  0.010012046           14    5.7494515    867.45968   0.99601171 
   10300   0.85524509   -6.6147741   0.79576305 0.0064382121 0.0099950984           18    5.3425842    872.30421   0.99048015 
   10400   0.79348182   -6.5850258   0.80361049 0.0064391863 0.0099755111           18    5.3918922    873.76679    0.9888222 
   10500   0.83501551   -6.5582549   0.81184775 0.0064432358 0.0099514259           23    5.4923983     874.4469   0.98805313 
   10600   0.81610746   -6.6016857   0.80953561 0.0063642733 0.0099234966           12    5.7195572    868.10675   0.99526931 
   10700    0.8359709   -6.5907802    0.8101937 0.0063099195  0.009879178            8    5.9216563    866.42351   0.99720286 
   10800   0.81859126   -6.6325626   0.81128473 0.0062599127 0.0098302534           26     5.669012    866.09989   0.99757546 
   10900   0.82329921   -6.6013592   0.81583937 0.0062373038 0.0097757521           39    5.9029197    864.42987   0.99950271 
   11000   0.85517387   -6.6060269   0.83314031 0.0063116688 0.0097266147           26    5.6603107    868.57767    0.9947297 
   11100   0.79373982   -6.6217238    0.8205359 0.0061601791 0.0096682584           27    5.5058856    868.91515   0.99434334 
   11200   0.78867665   -6.6124984   0.82242282 0.0061192171 0.0095971647           21     5.219306    873.53238   0.98908755 
   11300   0.82430313   -6.6288724   0.83280405 0.0061416225 0.0095270038           11    5.0216013    876.07917   0.98621224 
   11400    0.8095359    -6.637076   0.83457686 0.0061007078 0.0094605079           22      5.52182     868.1616   0.99520642 
   11500   0.81477211   -6.6295431   0.85508689 0.0061962815 0.0094001151           11    5.6760662    866.58778   0.99701383 
   11600   0.83945825   -6.6035011   0.86285825 0.0061986941 0.0093455749            9    5.5480783    870.85155   0.99213235 
   11700   0.84381415   -6.5731247   0.87408594 0.0062256831 0.0092951435           10    5.5065683    872.87852   0.98982845 
   11800   0.81923823   -6.5444417    0.8802133 0.0062161954 0.0092462774           15    5.8795146    870.11621   0.99297081 
   11900   0.84077957   -6.6399869   0.86942787 0.0060884302 0.0091895908            9    5.7618058    864.85467   0.99901178 
   12000   0.81589592   -6.6038559    0.8870733  0.006160231 0.0091317402           23     5.714555    868.04123   0.99534443 
   12100   0.82792589   -6.5982318   0.88916564 0.0061237301 0.0090789372           13    5.3382493    873.70079    0.9888969 
   12200   0.84056742   -6.6451065   0.90375539 0.0061731923  0.009023775            4    4.7734858    878.40183    0.9836045 
   12300   0.80263415   -6.5968405   0.93654391 0.0063451482 0.0089812099            5    4.9165734    878.71405   0.98325501 
   12400   0.79423351   -6.6247686   0.93294957 0.0062698221 0.0089462912           14    5.5789405    867.98157   0.99541284 
   12500   0.80482056   -6.6010675   0.93965941 0.0062643958 0.0089062685            6    5.7181671    867.38195   0.99610097 
   12600   0.83688441   -6.5955552   0.94630348 0.0062586206 0.0088669263           10    5.6274794    870.20793   0.99286616 
   12700   0.81837315   -6.6031192   0.95887333 0.0062918195 0.0088312478           11    5.5800702    869.47618   0.99370175 
   12800   0.79812452   -6.6282182   0.97726265 0.0063623868  0.008801868            6     5.782084    865.04247   0.99879489 
   12900   0.82462618     -6.59416    0.9982553 0.0064486774 0.0087781491           13    5.5578616    870.31427   0.99274484 
   13000   0.83427251   -6.6537283    1.0043079 0.0064378708 0.0087571074           11    5.2693427    871.08666   0.99186458 
   13100   0.84190848   -6.5773675    1.0079366 0.0064118102 0.0087376063           13    5.8353546    867.86309   0.99554873 
   13200   0.83649231   -6.5308348    1.0093876 0.0063723963 0.0087124631           23    6.1639804    867.29741   0.99619806 
   13300   0.82033183   -6.6053042    1.0276942 0.0064391867 0.0086903262           44     5.827784    865.91449   0.99778906 
   13400   0.84142275   -6.6411421     1.042145  0.006481001 0.0086727568            6    5.6644829    866.56518   0.99703983 
   13500   0.85210427   -6.5677969     1.043882  0.006443716 0.0086540761            5    5.9709255    867.15682   0.99635957 
   13600   0.88016476   -6.5765141    1.0565224 0.0064737888 0.0086378821            7    6.0978666    865.01929   0.99882166 
   13700   0.83081336   -6.5785749    1.0690726 0.0065028746 0.0086237759            7    6.2931742    862.23234    1.0020501 
   13800   0.83352359   -6.6189621    1.0920083 0.0065942531 0.0086134985            6    6.2301073    859.87082    1.0048021 
   13900   0.84051055   -6.6471621    1.1172396 0.0066980789 0.0086103587            4    5.5193916    867.88555   0.99552297 
   14000   0.87796445   -6.6482523    1.1504367 0.0068478371 0.0086142101           14    5.0712704    874.90978    0.9875304 
   14100   0.81269177   -6.6442962     1.161799  0.006866424 0.0086221436           13    5.1959506    871.98326   0.99084471 
   14200     0.852936   -6.6486029    1.1619063 0.0068186985 0.0086278077            6    5.0656771    873.64198   0.98896347 
   14300   0.80587222   -6.5667381    1.1638052 0.0067820814 0.0086286225            4    5.7222322    870.32578   0.99273171 
   14400     0.822508   -6.5522579     1.190931 0.0068919615 0.0086327969            5    5.9303758    868.49326   0.99482638 
   14500    0.8535345   -6.5014201    1.2129017 0.0069706994 0.0086451844            8    6.0558125    870.91072   0.99206494 
   14600   0.82906693   -6.5450988    1.2458579  0.007111061 0.0086646227            2    5.7665534    871.10935   0.99183874 
   14700   0.86721782   -6.5574573     1.259629 0.0071407536 0.0086876242            1    5.8021976    871.05467     0.991901 
   14800   0.84567588   -6.5802436    1.2729229 0.0071673584 0.0087124059            2    6.0801891    865.14529   0.99867618 
   14900   0.81999131   -6.5646142    1.2877554 0.0072022111 0.0087355139            3    5.7675585    870.21421   0.99285898 
   15000   0.84290037   -6.5624092    1.3041489 0.0072452715 0.0087600869            5    5.7202587    871.09371   0.99185655 
   15100    0.7954326   -6.5340407    1.3101488 0.0072304018 0.0087816878            9    6.0345503    868.61032    0.9946923 
   15200   0.86205195   -6.6285579     1.330519 0.0072945116   0.00880349           12    5.5914445    868.97662     0.994273 
   15300   0.82152837   -6.5425567    1.3514071 0.0073606047 0.0088290903            5    5.4258561    877.20139   0.98495056 
   15400   0.83149487   -6.5786083    1.3463644 0.0072855214 0.0088499302           10    5.2778512    876.23944   0.98603186 
   15500   0.85633936   -6.6428899    1.3654976 0.0073413846 0.0088695332            5    5.1422284    873.78834   0.98879782 
   15600   0.84209016   -6.5743387    1.3788557 0.0073656819 0.0088896197            4     5.565796    873.06827   0.98961333 
   15700   0.83408345   -6.5266229    1.3942327 0.0074003858 0.0089120328            4    5.7943047    873.68553   0.98891417 
   15800   0.81061415   -6.5430668    1.4124211 0.0074494779 0.0089348127            5    6.0138003    868.48071   0.99484075 
   15900   0.85928294   -6.5812746    1.4423632 0.0075595555 0.0089626267            4    5.9533108    866.95455   0.99659204 
   16000   0.81225516   -6.5558709    1.4670467  0.007640868 0.0089945136            1    5.8780897    868.78569   0.99449151 
   16100   0.85865744   -6.6109648     1.467029 0.0075933173 0.0090244943            3    5.5492265    869.66992   0.99348038 
   16200   0.83616075   -6.5112484    1.4817898 0.0076223754 0.0090512529            2    5.9541305    871.67958    0.9911899 
   16300   0.85302433   -6.5968901    1.5041129 0.0076897385 0.0090793797            8    5.4236124    873.01999   0.98966806 
   16400   0.82429867   -6.5697097    1.5177743 0.0077122678 0.0091093529            2    6.0038751    866.42243    0.9972041 
   16500   0.86336833   -6.5924238    1.5451147 0.0078036096 0.0091417978            2    6.0283739     865.7151   0.99801887 
   16600   0.86396229   -6.5260328    1.5696748 0.0078798931  0.009177828            3    6.0178125    869.86713   0.99325514 
   16700   0.83491117   -6.5466663    1.5912377 0.0079403078  0.009215452            4    6.0944423    866.86961   0.99668969 
   16800   0.82988449   -6.6073946    1.6015612 0.0079442515 0.0092513729            2    5.7926856    867.04738   0.99648533 
   16900   0.85515122   -6.5421195    1.6206905 0.0079915704 0.0092887445            3    6.5113597    861.83522    1.0025118 
   17000   0.86113268   -6.5600316    1.6403994 0.0080411734 0.0093269222            3    6.1203669    865.79453    0.9979273 
   17100   0.83323535   -6.5302278    1.6390485 0.0079875656 0.0093619108            9    6.2615014    866.02202   0.99766517 
   17200   0.81932655   -6.6035363      1.65019 0.0079951063  0.009393536           12    6.0121888    864.02072   0.99997601 
   17300   0.83205086   -6.6938876    1.6571443 0.0079823906 0.0094226401            8    5.5020129    864.60527   0.99929995 
   17400   0.84698705    -6.602067    1.6732321 0.0080135635 0.0094505607           16    5.6714742    868.49718   0.99482188 
   17500   0.81258895   -6.5951436     1.675867 0.0079803189 0.0094754737            7     5.502318    871.74051   0.99112063 
   17600   0.80626723   -6.6112526    1.6899498 0.0080016562 0.0094977419            6    5.5376835    870.01908   0.99308167 
   17700   0.82478515   -6.5541053    1.7109012 0.0080550901 0.0095223358            4    5.8342303     869.9518   0.99315847 
   17800   0.86861885   -6.5437904    1.7181886 0.0080439539  0.009547176            9    5.7754009    872.53474   0.99021845 
   17900   0.85170432   -6.6222002    1.7383353 0.0080928083  0.009569526           10    4.9730257    878.10203   0.98394033 
   18000   0.78889516   -6.6046589    1.7492567 0.0080984103 0.0095908779           15    5.1856069    874.74261   0.98771912 
   18100   0.83010685   -6.6162225    1.7823316 0.0082059462 0.0096146806           12    5.3457609    872.19069   0.99060906 
   18200   0.86650337   -6.5566575    1.8096728 0.0082860474 0.0096438211            7    5.6173262    873.18518   0.98948084 
   18300   0.83087328   -6.5519228    1.8104144 0.0082441455 0.0096737151            5    6.0300931    867.29589   0.99619981 
   18400   0.82332969   -6.5504609    1.7954611  0.008131617 0.0096958535            8    6.1977404    864.68437   0.99920853 
   18500   0.83141924   -6.5778971    1.8440045 0.0083063263 0.0097194403            6    6.0004441    866.12498   0.99754657 
   18600   0.82510259   -6.5763942    1.8769754 0.0084093876 0.0097504995            3     5.880487    867.17021   0.99634419 
   18700   0.87026041   -6.5992919    1.8869251  0.008408757  0.009780477            4    5.6794132    869.77458   0.99336084 
   18800   0.83288327   -6.6151821    1.8916818 0.0083851144 0.0098087065            6    5.9483596    863.58456    1.0004811 
   18900   0.85413623   -6.6465944    1.9121158 0.0084308456 0.0098362697            8    5.5724707    866.85196   0.99670998 
   19000   0.83023655   -6.6443573    1.9191072 0.0084171365   0.00986108           10    5.4070508     869.5571   0.99360928 
   19100   0.82024169   -6.6848437    1.9306695 0.0084235141 0.0098853146            4    5.3636987    866.83299   0.99673179 
   19200   0.79028562   -6.6187836    1.9393504 0.0084173193 0.0099078921            8    5.7457517    865.63573   0.99811037 
   19300   0.81121559   -6.5957951    1.9419103 0.0083847593 0.0099280483            5     5.471637    871.72362   0.99113983 
   19400   0.86028688   -6.5792597    1.9466173 0.0083617582 0.0099458805            6    5.4074742     874.3735   0.98813608 
   19500   0.83539465   -6.5446612    1.9473395 0.0083219635 0.0099617356            2    6.0226821    867.93061   0.99547128 
   19600   0.84657678   -6.5939241     1.955675 0.0083149446 0.0099763522            3     6.067908    864.26602    0.9996922 
   19700   0.84135315   -6.5922547    1.9761846 0.0083594947 0.0099916264            7    5.9743413    865.56156    0.9981959 
   19800   0.83098358   -6.5757319    1.9873092 0.0083640957  0.010005515            3    6.0120476    866.18053    0.9974826 
   19900    0.8830766   -6.5630973    2.0336736 0.0085162211  0.010023317           11    5.8736441    869.38048   0.99381113 
   20000   0.83969028     -6.58315    2.0412962 0.0085054007  0.010042332           14    5.6402486    870.64487   0.99236787 
   20100    0.8505939   -6.6254365    2.0344064 0.0084345203  0.010057354            8     5.672932    867.19977   0.99631023 
   20200   0.78707264   -6.6046199    2.0240549 0.0083500611  0.010068295            9     5.871209    864.64453   0.99925458 
   20300    0.8247885   -6.6127203     2.045073 0.0083952093  0.010077749            4    5.6932359     866.7934   0.99677732 
   20400    0.8556982    -6.612487    2.0625147 0.0084253048  0.010089411            3     5.897356    865.51851   0.99824555 
   20500   0.86088048   -6.5871902    2.0881793 0.0084885334  0.010102329            4    6.0826867    864.26817   0.99968972 
   20600   0.85918001   -6.5094698    2.1094181 0.0085332445  0.010116806            6    6.0076662    870.64202   0.99237113 
   20700    0.8355368   -6.5965631    2.1451368 0.0086358162  0.010133376            5    5.5780369    870.52974   0.99249912 
   20800   0.82497951   -6.6091637    2.1572153 0.0086426894  0.010150736            4     5.418885    872.66889   0.99006624 
   20900   0.85174254   -6.5588884     2.148353 0.0085660006  0.010165231            3    5.3259287    877.10103   0.98506326 
   21000   0.84037822   -6.5862213    2.1524347 0.0085414074   0.01017618            5     5.366532    874.29315   0.98822689 
   21100   0.83734379    -6.595031    2.1519694 0.0084990889  0.010185549           12    5.7903873    867.23861    0.9962656 
   21200   0.80613309    -6.575179    2.1639522 0.0085061011  0.010194227            3    6.2023591    862.64452    1.0015713 
   21300    0.8119177   -6.5482366    2.2037456 0.0086218527   0.01020448            5    5.8754318    869.00462   0.99424097 
   21400   0.85358224   -6.5607308    2.2432692 0.0087354717  0.010218589           13    5.0355573    881.16596   0.98051904 
   21500    0.8322353   -6.6097934    2.2540983  0.008736815  0.010233651            1    5.2161668    874.65865   0.98781393 
   21600    0.8369256   -6.5828818    2.2423176 0.0086509163  0.010246473            7    5.6621703    870.92049   0.99205382 
   21700   0.84492582   -6.5802534    2.2202111 0.0085261561  0.010255176            3    5.8011213    869.08313   0.99415116 
   21800   0.82738345   -6.4999722    2.2106232 0.0084503945   0.01025908            5    6.2148353    868.65944   0.99463605 
   21900   0.81905885   -6.5168353     2.213488 0.0084227091  0.010260438            4    5.7442088    874.06751     0.988482 
   22000   0.78722622   -6.5681001    2.2267014  0.008434475  0.010260003            4    5.5002233    872.65496   0.99008204 
   22100   0.81781277    -6.549823    2.2511536 0.0084885128  0.010260557            6    5.7106548    871.86064   0.99098407 
   22200   0.86280342   -6.5678297    2.2641589 0.0084990948  0.010263484            7    5.8410862    869.78566   0.99334818 
   22300   0.83793859    -6.575424    2.2682764 0.0084763689  0.010266045            4    5.7333344    869.87711   0.99324374 
   22400    0.8472585   -6.5976328    2.2677147 0.0084364383    0.0102659            8    5.5950052     870.2457   0.99282306 
   22500   0.79342915   -6.6069225    2.2962142  0.008504497  0.010264729            8    5.3612843    872.03692   0.99078374 
   22600   0.80132656   -6.5740872     2.336427 0.0086151438   0.01026753           14    5.3294518    874.58323   0.98789911 
   22700   0.81665445   -6.5096393    2.3615276 0.0086693375  0.010273315            5    5.7855972    873.59304   0.98901887 
   22800   0.83080782   -6.5680666    2.3578818 0.0086179887  0.010279398           12    5.4590856    874.50024   0.98799287 
   22900   0.79387425   -6.5830169     2.364043 0.0086027764  0.010282864            9    5.6408532    870.22122   0.99285099 
   23000   0.80960243   -6.5751095    2.3824454 0.0086320484  0.010286268           15    5.5943009    870.99594   0.99196788 
   23100   0.84775717   -6.5839812    2.4120614 0.0087015199  0.010291346           12    5.2391946     876.2389   0.98603246 
   23200   0.86696998   -6.5524739     2.434719 0.0087453985  0.010298551            6    5.4878187    875.05125   0.98737074 
   23300   0.79042709   -6.5531052    2.4400503 0.0087269324  0.010305584            4    5.8782347    868.48985   0.99483028 
   23400   0.84700898   -6.5924726    2.4415309 0.0086949106  0.010311473            3    5.5848831    870.19211   0.99288421 
   23500   0.89230694   -6.5524108    2.4502105 0.0086886896  0.010315932            6    5.7174812    871.84125   0.99100611 
   23600   0.82966556   -6.5648472    2.4722651 0.0087297496  0.010321954            1    6.0566696    866.45998   0.99716088 
   23700   0.86345695   -6.5485179     2.472905  0.008695165  0.010327437            7    6.0376062    868.55387   0.99475696 
   23800   0.84610097   -6.5591426    2.4814761 0.0086886415  0.010331826            7    5.5924389    873.22704   0.98943341 
   23900   0.85077931    -6.591174     2.459972 0.0085773079   0.01033261           12    5.4270235    873.10918   0.98956696 
   24000   0.79879661   -6.6062698    2.4703172 0.0085774902  0.010330178            5    5.4802896    870.14063   0.99294294 
   24100   0.81910151   -6.5432073    2.4973274 0.0086352952  0.010329861           15    5.5074611     874.5969   0.98788367 
   24200   0.83079742   -6.5790826      2.48174 0.0085459366  0.010327441            5    5.4872061    873.60907   0.98900072 
   24300   0.84630409   -6.6162075    2.4733242 0.0084819074  0.010322985            8     5.518096    870.17366   0.99290525 
   24400   0.84962224   -6.5791157    2.4750692 0.0084531052  0.010316902           34    5.8697412    867.99368   0.99539895 
   24500   0.81171484   -6.5363655     2.480875 0.0084383501  0.010309873            8    5.5627017    875.09878   0.98731711 
   24600   0.78332937   -6.5526667    2.4920025 0.0084417428  0.010302404            9    5.7415783    871.40404   0.99150332 
   24700   0.80640124   -6.6000576    2.5244129 0.0085169126   0.01029678            8     5.437426    871.48014   0.99141674 
   24800   0.84720178   -6.5944751    2.5395598 0.0085334671  0.010291861           12    5.4875052    871.72172   0.99114198 
   24900   0.85689425   -6.5980908    2.5502383 0.0085349338  0.010288222            6    5.7685174    867.48634    0.9959811 
   25000   0.82331861   -6.5898539    2.5794136 0.0085980451  0.010285889            5     5.922222    865.78721   0.99793574 
   25100   0.84321198   -6.5535208    2.6058526 0.0086515688  0.010285263            7    5.7404268    871.22674   0.99170509 
   25200   0.80111288   -6.6129071    2.6150064 0.0086475076   0.01028436           17    5.5501807    869.04297    0.9941971 
   25300   0.82883992   -6.6381132    2.6351627 0.0086797188  0.010284086           14    5.3872265    870.26977    0.9927956 
   25400   0.83417516   -6.6091148    2.6433275 0.0086723343  0.010283922            9    5.5794294    869.63114   0.99352468 
   25500   0.84473868   -6.5467729    2.6609519 0.0086959211  0.010284249            9      5.87937    869.75786   0.99337993 
   25600   0.82790723    -6.614864    2.6825944 0.0087324033  0.010285439           20    5.7248945     867.0455    0.9964875 
   25700   0.84462254   -6.6343747    2.7087174 0.0087831301  0.010287441            7     5.460742    868.50942   0.99480787 
   25800   0.82955396   -6.5593542    2.7338982 0.0088304203  0.010290546           10    5.5387564    873.27461    0.9893795 
   25900    0.8628171   -6.5666419    2.7512441 0.0088521364  0.010294252           12    5.5400957    874.04521   0.98850721 
   26000   0.84060865   -6.6017985    2.7361805 0.0087698092  0.010296997           10    5.7090322    868.47765   0.99484425 
   26100   0.80929924   -6.6220138    2.7490447 0.0087772817  0.010298524            7    5.3870605    870.96303   0.99200536 
   26200   0.81947359   -6.5853397    2.7468626 0.0087368403  0.010298428           14    5.5567071    871.24003   0.99168997 
   26300   0.79874459   -6.6185441    2.7587322 0.0087412299  0.010298008            7    5.5375153    869.35771   0.99383717 
   26400   0.82820386   -6.5760921    2.7689569 0.0087403941  0.010297207            7    5.4772821     873.4361   0.98919657 
   26500   0.86127418   -6.6066748    2.7739126 0.0087229953  0.010296618            7    5.2967819    874.15607   0.98838186 
   26600   0.83482637   -6.6433173     2.783242 0.0087194296  0.010294354           14    5.4787069    868.50459    0.9948134 
   26700   0.80459098   -6.6015916    2.8092933 0.0087680813  0.010293668           11     5.757147    866.58704   0.99701468 
   26800   0.82806585   -6.5364262    2.8263015 0.0087882507  0.010294229            6    6.1588039    866.87889   0.99667902 
   26900   0.85387124   -6.5849416    2.8380904 0.0087921015  0.010295685            4    5.5947794    870.76952   0.99222582 
   27000   0.81204242   -6.5737122    2.8583523 0.0088220748  0.010296531           10    5.8312957      868.443   0.99488395 
   27100   0.83509731   -6.6307499    2.8901386 0.0088872649  0.010298465           17    5.4266991    870.33101   0.99272574 
   27200   0.80229956   -6.5312617    2.9198439 0.0089456002   0.01030116           11    5.7110716    873.09837   0.98957921 
   27300   0.85129717   -6.5725775    2.9785198 0.0090919405  0.010307639           14    5.1525717    878.32819   0.98368697 
   27400   0.83024069   -6.6085672    2.9635849 0.0090133359   0.01031409           13    5.3422487    873.04064   0.98964465 
   27500   0.80036473   -6.5750681    2.9454216 0.0089255198  0.010318396            9    5.8276174    868.42421   0.99490548 
   27600    0.8115139     -6.67581    2.9397109 0.0088759384  0.010320175            7    5.4483459    866.10886   0.99756513 
   27700   0.82744375    -6.636089    2.9562549 0.0088936667  0.010321001            6    5.3750375    870.82844   0.99215868 
   27800   0.84707477   -6.5657383    2.9570005 0.0088639103  0.010322415            2    6.0346493    866.80472    0.9967643 
   27900   0.80752484   -6.5468245    2.9843961 0.0089139667   0.01032437            2    6.1745223    866.61263   0.99698524 
   28000   0.85240903   -6.5840681    3.0006286 0.0089304422  0.010327456            3    5.8758902    867.69347   0.99574335 
   28100   0.86273874   -6.6002263    3.0262358 0.0089746018  0.010330079            2    5.4233604    873.05997   0.98962274 
   28200   0.78788918   -6.5605093     3.071995 0.0090779994  0.010334734            3     5.461758    873.57729    0.9890367 
   28300   0.84858511   -6.5949865     3.097459 0.0091209038  0.010340628            3     5.470239    872.15252   0.99065242 
   28400   0.81395711   -6.6130205    3.1013651 0.0091002494  0.010346701            3    5.6750953    867.54081   0.99591857 
   28500   0.84505618   -6.6044094    3.1078752 0.0090873543  0.010352189           13     5.613545    869.76959   0.99336653 
   28600   0.85678663   -6.5664572    3.1125001 0.0090690562  0.010357483            8    5.5881285    873.04545    0.9896392 
   28700   0.84841891   -6.6200893    3.1366228 0.0091074993  0.010362182           20    5.2887637    872.73335   0.98999311 
   28800   0.79671087    -6.612956    3.1348859 0.0090708501  0.010366578           12    5.6569554     867.4089   0.99607002 
   28900   0.83436906    -6.611161    3.1701795 0.0091412326  0.010371789           19    5.8041068    866.25209    0.9974002 
   29000   0.85138874    -6.568481    3.1722093 0.0091155439  0.010378047            7    5.9719097    867.49602   0.99596999 
   29100   0.87585085   -6.5378942    3.1720252 0.0090836917  0.010383487            5    5.8750506    871.82837   0.99102074 
   29200   0.86888091   -6.6177657    3.1533983 0.0089994243  0.010386021           10      5.57082    869.18952   0.99402947 
   29300   0.84000545   -6.6212969    3.1633221 0.0089969341  0.010387342            8    5.4936703    869.75737   0.99338049 
   29400   0.79654343   -6.6224684    3.1721909 0.0089914707  0.010387774            4    5.5591617    868.96527   0.99428599 
   29500    0.8501343   -6.6376747    3.1700616 0.0089549761  0.010387454           10    5.6253581    867.07284   0.99645607 
   29600   0.84758779   -6.5457031    3.1738146 0.0089352888  0.010388029           10    6.0326544    867.63081   0.99581526 
   29700    0.8221016    -6.566959    3.1855811 0.0089382185  0.010387042           11    6.0682209    865.88878   0.99781868 
   29800   0.82887663   -6.6089846    3.2045622 0.0089613036  0.010386669            8    5.7165887    867.89209   0.99551547 
   29900   0.83201697   -6.5835979    3.2212966 0.0089779726  0.010386597            4    5.6878421    869.96242   0.99314635 
   30000   0.89694886   -6.6143399    3.2406716 0.0090018655  0.010386794            6    5.4081163    872.38109   0.99039286 
   30100   0.84657639   -6.5979082    3.2519669 0.0090032305  0.010387561            4    5.9637882    864.93531   0.99891863 
   30200    0.8595811   -6.6596985    3.2719381 0.0090285265  0.010388649           15    5.6230035    865.40434   0.99837724 
   30300   0.79964843   -6.6096048    3.2835561 0.0090306822  0.010389409           18    5.4867305    870.35821   0.99269472 
   30400   0.84827792   -6.5952908    3.2652413 0.0089507708  0.010388362           19      5.55139    870.68974   0.99231674 
   30500   0.78498614   -6.5398583    3.2625505 0.0089140723  0.010386615           11    6.1782962    865.99297   0.99769863 
   30600   0.85038125   -6.5687242    3.3087141 0.0090106591  0.010385622            5    6.1823508    864.12308   0.99985756 
   30700   0.80546318   -6.6201669      3.38061 0.0091764657  0.010387726            3     5.404427    871.70645   0.99115935 
   30800   0.80538585   -6.6162801    3.3951581 0.0091860337  0.010391357           10    5.2780074    872.42183    0.9903466 
   30900   0.81088583   -6.5995198    3.4409864 0.0092798985  0.010395244            6    5.0907003    877.63861   0.98445988 
   31000   0.82272436   -6.5817967    3.4537863 0.0092843717  0.010400663            6      5.43149    873.84116   0.98873805 
   31100   0.81110439   -6.6378778    3.4532662 0.0092531247  0.010406124            7    5.4225939    869.41779   0.99376849 
   31200    0.7736096   -6.5817551    3.4321882 0.0091671692  0.010409586            2    5.9297823    865.55548   0.99820291 
   31300   0.82214908   -6.5987161    3.4448383 0.0091715607  0.010411886            6     5.632449    869.58128   0.99358165 
   31400    0.8519889   -6.5690759    3.4453586 0.0091437329   0.01041428            4    5.9054822    867.83533   0.99558058 
   31500   0.80217129   -6.6205676    3.4566743  0.009144641  0.010416691            6    5.5394768    868.62986   0.99466993 
   31600   0.85395063   -6.6058638    3.4519573 0.0091032627  0.010417584           13    5.6429335    869.51187   0.99366096 
   31700   0.82854396   -6.5664063    3.4634003 0.0091046273  0.010418239            7    5.8695832    869.11164   0.99411855 
   31800   0.80435286   -6.5956263    3.5041622 0.0091828148  0.010419967            2    5.3152831    874.09678    0.9884489 
   31900   0.79877356   -6.6406979    3.5319982 0.0092267453  0.010422236            4    5.1563216    872.48727   0.99027233 
   32000    0.8315055   -6.6444637    3.5451422 0.0092321411  0.010424608            4     5.517216     867.5649   0.99589091 
   32100   0.84363217   -6.5630389    3.5534632 0.0092249821  0.010428027            5    5.9510508    868.16647   0.99520084 
   32200   0.84686729   -6.5954926    3.5453019 0.0091752118  0.010430759            5    5.7688477    867.78622   0.99563692 
   32300   0.83694043    -6.598352    3.5306533 0.0091090126   0.01043115            6    5.8745031    866.41067   0.99721764 
   32400   0.81642484   -6.5447247    3.5510283 0.0091333032  0.010431828            5     5.990118    868.54862   0.99476297 
   32500    0.8163867   -6.5092382    3.5544814 0.0091140546  0.010432105            5    5.9882042    870.74108   0.99225822 
   32600   0.87778632   -6.5196235    3.5587117 0.0090969112  0.010432111            6    5.7993442    873.99259   0.98856673 
   32700   0.84508055   -6.5106421    3.5691857 0.0090957841  0.010431674            3    6.3457023    865.53898   0.99822194 
   32800   0.83942679   -6.5945923     3.608005 0.0091666793   0.01043267           19    5.8430565    866.69548   0.99688994 
   32900   0.83814896   -6.6481726    3.6294132 0.0091930425  0.010433868           16    5.4225869    869.08974    0.9941436 
   33000   0.80626785   -6.6509748    3.6641828 0.0092529866  0.010435063            9    5.1136838    872.51651   0.99023915 
   33100   0.82996189   -6.6080802    3.6487364  0.009186144  0.010435816            8     5.231306    874.87043   0.98757481 
   33200   0.87983943   -6.5560169    3.6417799 0.0091410138  0.010435875           16    5.6751599    871.82658   0.99102278 
   33300   0.83951778    -6.555199    3.6382438  0.009104714  0.010435027           22    6.1215538    865.73856   0.99799182 
   33400   0.85670085   -6.5404751    3.6709047 0.0091589438  0.010435339           20    6.1837996     866.5069   0.99710688 
   33500    0.8615824   -6.5729868    3.6789576 0.0091516358  0.010435959           24    5.8665792    868.48721    0.9948333 
   33600   0.83951819   -6.5468732    3.7007798 0.0091785213  0.010436493           22    6.1296404    866.87603   0.99668231 
   33700   0.85761327   -6.5784899    3.7367942 0.0092403415  0.010437904           35    5.8285205    868.89537   0.99436598 
   33800   0.85018378   -6.5953001     3.778089  0.009314815  0.010440256           16    5.4288076     874.1224   0.98841993 
   33900   0.87363813   -6.5634867    3.7651712 0.0092555829  0.010442731           22    5.3889392    876.98639   0.98519203 
   34000   0.83900934   -6.5370052     3.771576 0.0092440588  0.010444049            9    5.9375031    870.53588   0.99249212 
   34100   0.85034678   -6.6107822    3.7830089 0.0092448896  0.010445635            8    5.4935008    871.11581   0.99183139 
   34200   0.77790641   -6.5877329     3.796847 0.0092515765  0.010447052           21    5.7114743    868.93834   0.99431681 
   34300   0.80966134   -6.5284746    3.8132318 0.0092644114   0.01044788            6    5.6345282    874.41863   0.98808508 
   34400   0.81320793   -6.5078347    3.8303521 0.0092789536  0.010449513           20    5.8139662    873.92585   0.98864223 
   34500   0.84271296    -6.552759    3.8366161 0.0092671885  0.010450402            8    5.5626479    874.55293   0.98793335 
   34600   0.81061014   -6.5809026    3.8478975 0.0092675758    0.0104513           17    5.4271543    873.70126   0.98889636 
   34700   0.78942613   -6.6372357    3.8724959 0.0092999421  0.010452259            3    4.8735956    877.10742   0.98505609 
   34800   0.81768336   -6.5575544    3.9033543 0.0093471126  0.010453616            8    5.2987407    877.34727   0.98478679 
   34900    0.8593705   -6.5847112    3.8849432 0.0092763686  0.010455092           10      5.65473    871.10118   0.99184804 
   35000   0.82816621    -6.610372    3.9038483 0.0092948768   0.01045601            3      5.67786    868.75679    0.9945246 
   35100   0.85812123   -6.5852946    3.9206412 0.0093082649  0.010457739            4    5.6598023     870.8114    0.9921781 
   35200   0.80898422   -6.5541855    3.9422271 0.0093329239  0.010460002            4    5.9398447    868.72176    0.9945647 
   35300   0.83667025   -6.6278195    3.9651205 0.0093605299   0.01046271            5    5.5188387    868.95755   0.99429484 
   35400    0.8513996   -6.5572887    3.9625185 0.0093279623  0.010464303           17    5.5438828    873.50501   0.98911855 
   35500   0.81835814   -6.5589686    3.9724095 0.0093249049   0.01046623           16    5.6868574    871.32718   0.99159079 
   35600   0.81322714   -6.6968434    4.0051832 0.0093754286  0.010467309           12    4.6046433    876.83968   0.98535686 
   35700    0.8037141   -6.6478154    3.9833288 0.0092981529  0.010467525           11    4.7067001     878.9319   0.98301132 
   35800   0.81262718   -6.5576174    3.9753802 0.0092536781  0.010466416           13     5.495853    874.05434    0.9884969 
   35900   0.85593545   -6.5788752    4.0340196 0.0093640193  0.010467229            6    5.6144597    871.99255   0.99083415 
   36000   0.83060922   -6.6102866    4.0391363 0.0093498524  0.010468987            6    5.9154663    864.41417   0.99952087 
   36100     0.833646   -6.5966735    4.0475112 0.0093432852  0.010470977           11     6.033199    864.00996   0.99998847 
   36200   0.82198271   -6.5175882    4.1009082 0.0094403962  0.010473539           11    6.1150887    868.52872   0.99478575 
   36300   0.80634579   -6.5601812    4.1284712 0.0094776656  0.010477525           18    5.6154148     871.9149   0.99092239 
   36400   0.81230483   -6.5852167    4.1025126 0.0093921991  0.010479959           25    5.5813924     871.1616   0.99177925 
   36500    0.8195724   -6.5325569    4.1620811 0.0095024682   0.01048305            8    5.5833652    874.35687   0.98815487 
   36600   0.80228015   -6.6125242    4.1583342  0.009467974  0.010486548            2    5.4219137    871.08711   0.99186406 
   36700   0.83177332   -6.5821723    4.1896767 0.0095133439  0.010489983            6    5.6699185    870.84952   0.99213467 
   36800   0.84867633   -6.5842489    4.1752463  0.009454815  0.010493884            6    5.9390007    866.27125   0.99737813 
   36900   0.85047205   -6.6207698    4.1837905 0.0094484879  0.010496921            3    5.8863679    865.01274   0.99882922 
   37000   0.85854626   -6.5735411    4.1801976 0.0094148593   0.01049964            2      6.00456    866.02617   0.99766038 
   37100    0.8525979   -6.5897532    4.2093352 0.0094549308  0.010502035            5    5.4935262    872.74339   0.98998172 
   37200   0.79667506   -6.5823991    4.2350001 0.0094870073  0.010504767            7    5.6263668    871.00061   0.99196256 
   37300   0.83652253   -6.5843608    4.2265994 0.0094428047  0.010507573            5    5.8161537    867.40217   0.99607775 
   37400   0.89375981   -6.5618327    4.2196265 0.0094020197  0.010509244            3    5.7652232    871.23166    0.9916995 
   37500   0.84414661   -6.5642127     4.207713 0.0093504731  0.010510335            4    6.0524624    865.54097   0.99821964 
   37600   0.83578662   -6.5622432    4.2172358 0.0093467105  0.010510728            4    6.1366791     865.3859   0.99839852 
   37700   0.82202977   -6.5872308    4.2156882 0.0093184973  0.010511254            2    6.0297271     865.2949   0.99850352 
   37800   0.81531511   -6.6193725    4.2198413 0.0093030009   0.01051033            6    5.6479706    867.14483   0.99637335 
   37900   0.84067069   -6.6110269    4.2849702 0.0094216582  0.010510142            3    5.1582486    875.71291   0.98662471 
   38000   0.82580684   -6.6584048    4.2576073 0.0093368581  0.010509969            5    5.2371848    870.25195   0.99281593 
   38100   0.82212736   -6.5907734    4.2565991 0.0093101467  0.010508863            3    5.5914992     870.8923   0.99208593 
   38200   0.80392604   -6.5599789    4.2605167 0.0092943208  0.010507149           10    5.8305237    868.77108   0.99450824 
   38300    0.8624185   -6.5706034    4.2987411 0.0093532224  0.010506532            4    5.6191738    872.48869   0.99027071 
   38400   0.83298914   -6.5351847    4.3109503 0.0093553608  0.010506375            4    5.8589852    871.39615    0.9915123 
   38500    0.8122255    -6.579395    4.3135075 0.0093365963  0.010506353            5    5.8001704     868.2186   0.99514109 
   38600   0.82829521    -6.584928    4.3337117 0.0093560269   0.01050553            8    5.4790915    873.00668   0.98968314 
   38700   0.82760534   -6.5818119    4.3545147 0.0093766464  0.010505291            7    5.4586429     873.7676   0.98882129 
   38800   0.85513162   -6.6155679    4.3481874 0.0093388903  0.010504823            2     5.574176    870.25571   0.99281164 
   38900   0.80575101   -6.5855353    4.3016098 0.0092151022  0.010502952            7    6.4923728    858.62868    1.0062557 
   39000   0.82219875   -6.6205188     4.312578 0.0092149102   0.01049991           12    6.0134049    862.69551    1.0015121 
   39100   0.84976018   -6.5954971     4.327599 0.0092233567  0.010496957            6    5.7561041     867.7667   0.99565932 
   39200   0.80592921   -6.5824368    4.3248805 0.0091940486  0.010493817            7    5.8433547    867.03139   0.99650371 
   39300   0.80662446   -6.6508219    4.3691278 0.0092644777  0.010490737            7    5.5204213    867.29273   0.99620344 
   39400   0.83310503   -6.5811937    4.4026283 0.0093118194  0.010489399            4    5.7765292    868.71108   0.99457694 
   39500   0.83814716   -6.5759873    4.3782758 0.0092368687  0.010487492            5     6.240167    862.72499    1.0014779 
   39600   0.83319745   -6.6213573    4.3646503   0.00918487  0.010484994           15     6.313605     858.4322     1.006486 
   39700   0.85022993   -6.6535922    4.4019279 0.0092399828  0.010482479            6    5.8376694      862.682    1.0015278 
   39800   0.83681771   -6.5862225    4.4222235 0.0092592618  0.010479935            8    5.8054487     867.7953    0.9956265 
   39900   0.83139659   -6.5789386    4.4515522 0.0092973103   0.01047752            6    5.5113351    871.82558   0.99102392 
   40000   0.84293856   -6.5615991    4.4631864 0.0092983048  0.010475594            6    5.6033702    872.65801   0.99007858 
   40100   0.80409756   -6.5936512    4.4245915 0.0091949115  0.010472441            8    5.8902084    865.34213   0.99844902 
   40200   0.82049089   -6.6000792    4.4782446 0.0092832598   0.01046956           10    5.5452129    870.13657   0.99294757 
   40300   0.83277135   -6.5593267     4.491559 0.0092877562  0.010467362           11    5.6578263     871.8162   0.99103458 
   40400    0.8198099   -6.6510916    4.4912646 0.0092641596  0.010464432           20    5.2363753    870.90692   0.99206928 
   40500   0.80799328   -6.5643411    4.5180224 0.0092963422  0.010462017           22    5.7353783    870.51718   0.99251343 
   40600   0.86729804   -6.6451135    4.5141222 0.0092654395  0.010459465           29    5.2503745    871.75989   0.99109859 
   40700   0.82050831   -6.5836967    4.5330411 0.0092814108   0.01045709           11    5.7648594    868.40942   0.99492242 
   40800   0.85492059   -6.5993619    4.5371033 0.0092669592  0.010454975            8    5.8655412    866.44965   0.99717278 
   40900   0.84570527   -6.5857832    4.5153505 0.0091999804  0.010452325           10    6.1817754    862.76006    1.0014372 
   41000   0.80257913    -6.568375    4.5248302 0.0091968092  0.010449059            8    6.0026947    865.72127   0.99801175 
   41100   0.84281824   -6.6406609    4.5699424 0.0092659009  0.010445801           11    5.1128616    874.26351   0.98826039 
   41200   0.85358207   -6.6079488    4.5684994 0.0092404922  0.010442092           19    5.1228947    876.19631   0.98608039 
   41300   0.81451898   -6.6155271    4.5947361 0.0092710575  0.010438932            6    5.0767815    876.17595    0.9861033 
   41400   0.82824458   -6.6155876    4.6106053 0.0092806065  0.010436024            3     5.340136    872.45508   0.99030886 
   41500   0.81479836   -6.6151022    4.5824005 0.0092016074  0.010432681            4    5.4872245    869.81786    0.9933114 
   41600    0.8248911   -6.5872747    4.5762561 0.0091671795  0.010428584            4    5.6445815    869.89172   0.99322706 
   41700   0.82370181   -6.5817367    4.6127947 0.0092182147  0.010424386            6    5.4760124    872.57563   0.99017205 
   41800   0.81538282   -6.5768889     4.602791 0.0091762179  0.010420776            8    5.7861971     868.5202   0.99479552 
   41900   0.82054324   -6.5931922     4.641701 0.0092317043  0.010416911            4    5.5932467     870.3843   0.99266496 
   42000   0.86579882   -6.5551027    4.6597849 0.0092456048  0.010414005            7     6.069081    867.25959    0.9962415 
   42100   0.82439825    -6.582128    4.6971441 0.0092975931  0.010411963            9    5.7903509     868.3359   0.99500666 
   42200   0.81160552   -6.6237406    4.6887659 0.0092590163  0.010409329            7    5.4555822    869.81585    0.9933137 
   42300   0.86740203   -6.6474387    4.7077427 0.0092745127  0.010406472           17    5.2684065    871.35719   0.99155663 
   42400   0.81309954    -6.666111    4.6905191 0.0092187875  0.010403189           15    5.4823403    866.09693   0.99757888 
   42500   0.81106471   -6.6081965    4.7243086   0.00926335   0.01040022           12    5.6596078    867.78032   0.99564369 
   42600   0.85198345   -6.6309541    4.7179123 0.0092290929  0.010397287            7    5.8474604    864.05353   0.99993805 
   42700   0.82084052    -6.657292     4.770272 0.0093096642  0.010395015            6    5.7333656    863.26883     1.000847 
   42800   0.81308423   -6.5983291    4.7928849 0.0093319408  0.010393342            6    5.7578912    867.51791   0.99594485 
   42900   0.85233317   -6.5906402    4.8214779 0.0093657302  0.010392203           10    5.4674947    872.87196    0.9898359 
   43000   0.83999818   -6.6512548    4.8182548 0.0093377029   0.01039066           16    5.3482727    869.84562    0.9932797 
   43100   0.78888538   -6.5996814    4.8746597 0.0094250959  0.010389524            3    5.4107575    872.02449   0.99079786 
   43200   0.84540122   -6.6455403    4.8806111  0.009414759  0.010388743            3    5.0737967     873.8997   0.98867181 
   43300    0.7982959   -6.6109288    4.8732496 0.0093788483    0.0103877            6    5.3239718    872.02365   0.99079881 
   43400   0.82911583    -6.543916    4.8383027 0.0092901357  0.010385884           13     5.669334    872.79682   0.98992111 
   43500   0.79794578   -6.5580504    4.8361906 0.0092647328  0.010383347           21    5.9448426    868.10308   0.99527351 
   43600   0.82527967   -6.5562246    4.8169964 0.0092067972  0.010380077           24    6.2459225    863.43306    1.0006566 
   43700   0.85768083   -6.6121805    4.8568539  0.009261735  0.010377257            8    5.3275188    873.73077   0.98886297 
   43800   0.82702412   -6.6065897     4.866326  0.009258611  0.010373951           12    5.4107102    872.02083   0.99080202 
   43900   0.85044932   -6.6267261    4.8544414 0.0092149609  0.010370497           10    5.4711965    870.00453   0.99309828 
   44000   0.81010937   -6.6108975    4.8756569 0.0092341985  0.010367167            5    5.6359894    867.62884   0.99581752 
   44100   0.84485629   -6.6054293     4.891419  0.009243044  0.010364134            8    6.0514757     863.2595    1.0008578 
   44200   0.84141151   -6.5414007    4.9109022 0.0092588652   0.01036179            7    6.2931459    864.01024   0.99998814 
   44300   0.83861998   -6.5602185    4.9474696 0.0093067523  0.010359946            2    6.1253806    865.58861   0.99816471 
   44400   0.85990933   -6.5957444     4.993248 0.0093717116  0.010358899            5    5.9284821    865.59988   0.99815171 
   44500   0.82165845   -6.6316416    5.0045824  0.009371877  0.010358218           12    5.5564113    867.27987   0.99621822 
   44600   0.84012426   -6.6742698    5.0451639 0.0094266888  0.010357464            3    5.1345195    870.95173   0.99201823 
   44700   0.84216367   -6.5824039    5.0331919 0.0093832809  0.010356755            6    5.5681288    871.75016   0.99110966 
   44800   0.83368303   -6.5692026    5.0234475 0.0093442102   0.01035566            5    5.9393125    867.04418   0.99648901 
   44900   0.80443226   -6.6185389    5.0207342 0.0093183632  0.010353686            4    5.7821765    865.01997   0.99882087 
   45000    0.8304184   -6.5915319    5.0325569 0.0093195498  0.010351799            2     5.648382    869.57513   0.99358867 
   45100   0.84424953   -6.5624715    5.0537062 0.0093379641  0.010350111            6    5.8630728    868.78423   0.99449319 
   45200   0.77608511   -6.5502936    5.0490818  0.009308779  0.010348315            7    6.0318999    866.27706   0.99737144 
   45300   0.83907342   -6.5822591    5.1163343 0.0094119468  0.010346825            3    5.5315912    872.79665    0.9899213 
   45400   0.78974151   -6.5374178    5.1823622 0.0095124122  0.010347022            5    5.5279472    874.86964   0.98757571 
   45500   0.82468198   -6.5987311    5.1536244 0.0094388724  0.010347204            2    5.5258331    870.94314   0.99202802 
   45600   0.82078332   -6.6037007    5.1943734 0.0094926413  0.010347054            4    5.3221653     873.8622   0.98871424 
   45700   0.83724352   -6.5408242    5.2306772 0.0095380691     0.010348           10    5.4600877    876.88908   0.98530135 
   45800   0.81515474   -6.5658448    5.2164239 0.0094913098  0.010348798            5    5.6380486    871.81124   0.99104021 
   45900   0.85783519   -6.6159102     5.181309 0.0094068789  0.010348794            4    5.8751079    865.21349   0.99859747 
   46000   0.86540876   -6.6015144    5.2204945 0.0094574176  0.010348987            6    6.1193697    862.97904    1.0011831 
   46100   0.87954445   -6.5462663    5.2809621 0.0095462076  0.010350412           11    6.1945944    867.02022   0.99651655 
   46200   0.82998507   -6.5468656    5.2944415 0.0095498583  0.010352414           13    5.9039989    870.09383   0.99299635 
   46300   0.80248734   -6.5724062     5.290003 0.0095212436  0.010353443            4    5.8071223     869.0245   0.99421823 
   46400   0.83178532   -6.5788071    5.3645224 0.0096345587  0.010354872           12    5.2127754    877.26807   0.98487569 
   46500   0.79413531   -6.5341225    5.3840635 0.0096488592  0.010357105            7    5.5444256    875.40682   0.98696969 
   46600   0.80958474   -6.5675912    5.3875967 0.0096344719  0.010359567            6    5.7605525    869.40335     0.993785 
   46700   0.79878564   -6.6292105    5.4183616 0.0096687394  0.010362056           10    5.3226843    871.42655   0.99147771 
   46800   0.79765909   -6.5284058    5.4412412 0.0096888198  0.010364762            6    5.2890539    879.04026   0.98289013 
   46900    0.8077705   -6.5325722    5.4567401 0.0096957002  0.010367473            4    5.4597316    876.65152   0.98556836 
   47000   0.78806896   -6.5708121    5.4475607 0.0096587954  0.010370105            9    5.6682942    870.70166   0.99230315 
   47100   0.80592208    -6.503865    5.4358979 0.0096176537  0.010372621            5    6.3980751     865.7839   0.99793956 
   47200   0.83711283   -6.5346582    5.4593803 0.0096387363  0.010374617           11    5.7162065    873.81127   0.98877186 
   47300   0.83128737   -6.6039674    5.4682716 0.0096340231  0.010376731           16    5.4656362    871.12461   0.99182136 
   47400   0.79248723   -6.5569815    5.4732643 0.0096224757  0.010378422           18    5.5361797     873.1273   0.98954643 
   47500   0.82471891   -6.5527517     5.514845 0.0096751665  0.010380397           13    5.3765364    875.86087   0.98645804 
   47600   0.79980683   -6.5705395    5.5248595 0.0096723729  0.010382322            9    5.3429447    875.91194   0.98640053 
   47700   0.84556411   -6.5293801    5.5028028 0.0096135617  0.010384061            7    5.6623587    874.34394   0.98816949 
   47800   0.83826447   -6.5619467    5.5069225 0.0096006318  0.010385474            5    5.4724412    875.14815   0.98726142 
   47900   0.82158209   -6.5624312     5.490217 0.0095515257  0.010386087            6    5.6023578    872.77772   0.98994277 
   48000    0.7912328   -6.5434263    5.4995319 0.0095477984  0.010386424            2    5.7718716    871.02684   0.99193269 
   48100   0.84546731   -6.5906859    5.5075109 0.0095417722  0.010386689            4    5.1951271    876.34917   0.98590839 
   48200   0.84478491   -6.5653972    5.5406613 0.0095792898  0.010386814            7    5.1380914    879.21797   0.98269147 
   48300   0.79405082    -6.577072    5.5142015 0.0095138051  0.010386455            8      5.46149    872.54111   0.99021122 
   48400   0.85899408   -6.6010842    5.5285629 0.0095188754  0.010385995            6    5.5270158    871.47554   0.99142198 
   48500    0.8514226   -6.4984825    5.5302074 0.0095020745  0.010385686            4     6.162561    869.98429   0.99312139 
   48600   0.81266333   -6.5210195    5.5680019 0.0095473283  0.010386258            5    6.1474115    867.85986   0.99555244 
   48700   0.85697851   -6.5795026    5.5773183 0.0095436657  0.010386824            3    5.9717473    865.43574   0.99834102 
   48800   0.82864765   -6.6223079    5.5576993 0.0094906067  0.010387023            7     6.238521    859.08602      1.00572 
   48900    0.8231509   -6.5961569    5.5874547 0.0095219063  0.010387194           17    6.3696271     858.4881    1.0064205 
   49000   0.83480088   -6.6130213    5.6549819  0.009617316  0.010388243            6    6.0753786    862.09438    1.0022105 
   49100   0.86432828   -6.6085448    5.6982539 0.0096711708  0.010390251            4    5.7378946    867.64047   0.99580418 
   49200   0.83106252   -6.5864733    5.7243637 0.0096957379  0.010392518            4    5.6487938    870.08733   0.99300377 
   49300   0.84464375   -6.5572092    5.7197428 0.0096682603  0.010394569           11    5.8138032    869.82499   0.99330326 
   49400   0.83495032   -6.5983673    5.7094182 0.0096312721  0.010396029            3    5.7197487    868.25393   0.99510059 
   49500   0.84337609   -6.6169875    5.6842402 0.0095694279   0.01039689            4    5.9004502    863.86901    1.0001516 
   49600   0.85443244   -6.6727276    5.7012383 0.0095786932  0.010397468            4    5.6940712    864.40334   0.99953339 
   49700   0.85073072   -6.5548032    5.6895905   0.00953989  0.010397818            3    6.1563498    865.25381   0.99855093 
   49800   0.83322864   -6.5537561    5.7124335 0.0095589583  0.010398023            4    6.0556275    866.99274   0.99654813 
   49900   0.82599313   -6.6161185    5.7459864 0.0095958357  0.010398547            4    5.6774021    867.32603   0.99616519 
   50000   0.84437188   -6.5764651    5.7220599 0.0095367665  0.010399021            2    6.0294243    865.65759   0.99808517 
   50100   0.82504049   -6.5586804    5.7033563 0.0094866205  0.010398557            5    6.1282778    864.76985   0.99910976 
   50200   0.80876409   -6.5840555    5.7283103 0.0095091471  0.010398253           10    6.1570264    862.57307    1.0016543 
   50300   0.83570372   -6.6061679    5.7596863 0.0095422238  0.010397987           11    5.7840528    867.23883   0.99626535 
   50400    0.8612332   -6.5713086    5.8339619 0.0096461009  0.010398346            4    5.3531285    875.83491   0.98648728 
   50500   0.81402184   -6.5518813    5.8373776 0.0096326362  0.010399076            3    5.3285312    877.94361   0.98411788 
   50600   0.84490406   -6.5677113    5.8127935 0.0095731117  0.010399354            9    5.4444982     874.3967   0.98810986 
   50700   0.81392084   -6.5754964    5.7549806 0.0094592053  0.010398503            6    5.8579193    867.51008   0.99595385 
   50800   0.81918085   -6.5839384    5.7191527  0.009381812  0.010396626            6    6.0158083    864.84772    0.9990198 
   50900   0.89341008    -6.595719    5.7129116 0.0093531624  0.010393922            7    5.7817482    868.11733   0.99525717 
   51000   0.82060439   -6.5613174    5.6800347 0.0092811024  0.010390588            8    6.3148799    862.25479     1.002024 
   51100    0.8551835   -6.6279855    5.7139769 0.0093182922  0.010387383            7    6.0829886    861.04582    1.0034309 
   51200   0.81733936   -6.6453942    5.7535669 0.0093645294  0.010384404           14     5.742255    863.71518    1.0003298 
   51300   0.83166909    -6.620977    5.8068856 0.0094328875  0.010382092           13    5.5407939    869.53841   0.99363063 
   51400    0.8249251   -6.6448663    5.8379708 0.0094649331  0.010380091            5    4.9816758    875.17368   0.98723262 
   51500   0.83240603   -6.5881316    5.8085772 0.0093989922  0.010377825            5     5.630611    869.68765   0.99346013 
   51600   0.79523654   -6.5978965    5.7495418 0.0092854356  0.010374565            9    6.0192518    863.12945    1.0010086 
   51700   0.81524344   -6.6381404    5.7877727 0.0093290984  0.010370959            8    5.8255299    863.36513    1.0007353 
   51800   0.82558462   -6.6049036    5.8139275 0.0093531652  0.010368253            9    5.7531753    866.50057   0.99711418 
   51900   0.82768986   -6.6171463    5.8401604 0.0093772645   0.01036532            9    5.3091949    872.48522   0.99027465 
   52000   0.81017197   -6.6023182    5.8729081 0.0094117116  0.010362419            3        5.399    871.91405   0.99092336 
   52100    0.7994958   -6.6585074    5.8945663 0.0094282889  0.010360213           10    5.3974428    867.97466   0.99542077 
   52200   0.83775215    -6.599667    5.9094265 0.0094339502  0.010358255            9    5.9286663    865.17607   0.99864066 
   52300   0.85387834    -6.618431    5.9225984 0.0094368998  0.010356758            3    6.0897073    861.62045    1.0027617 
   52400    0.8352617   -6.6175715    5.9394152 0.0094456347  0.010355312            2    5.9826706    863.01793     1.001138 
   52500     0.811592   -6.5799209    5.9715923 0.0094787178  0.010354054            2    5.9358956    865.86418   0.99784704 
   52600   0.85643916   -6.6437953    5.9795395 0.0094732881  0.010352789            3    5.4161702    869.51364   0.99365894 
   52700   0.79550731   -6.5992849    5.9916494 0.0094744613  0.010351284            4     5.464164    871.51218   0.99138029 
   52800   0.82215871   -6.5916323    5.9910453 0.0094555639  0.010349445            7    5.3393498    874.21418   0.98831616 
   52900   0.85607907   -6.5230535    5.9982568 0.0094490496  0.010347391           16    5.6935012    874.79063    0.9876649 
   53000   0.87214464   -6.6085169    5.9563791 0.0093653758  0.010345266           12    5.9504371    865.06953   0.99876365 
   53100   0.84195342   -6.6019059    6.0059705 0.0094255656  0.010343211            6    5.9154681    865.15906   0.99866029 
   53200   0.87162248   -6.5244308    6.0147283 0.0094215668  0.010341707            4    6.5238475    862.71396    1.0014907 
   53300   0.83534491   -6.5925922    6.0410865 0.0094451007  0.010340498            4    5.6790636     870.0116   0.99309021 
   53400   0.82940149   -6.6071489    6.0911251  0.009505501  0.010339154            3    5.3169593    873.06775   0.98961392 
   53500   0.77764058   -6.5971216     6.052678 0.0094278473  0.010337468            6    5.7023707    867.79001   0.99563257 
   53600   0.82659372   -6.6208501    6.0303792 0.0093755895  0.010334965            5    5.2620858    872.58785   0.99015818 
   53700    0.8315911   -6.6298066    6.0407662 0.0093742492  0.010331935            5    5.2275534    872.27951   0.99050819 
   53800   0.85762004   -6.5472636    6.0485382 0.0093688633  0.010329019            9    5.6720783     872.8839   0.98982236 
   53900   0.79219351   -6.4770226    6.0953487 0.0094238539  0.010326923            8     6.268884    868.86813   0.99439716 
   54000   0.80840613   -6.5415353    6.1047358 0.0094208886  0.010325121            4    5.7432055    871.29407   0.99162846 
   54100   0.83491484   -6.5977867    6.1378234 0.0094544414  0.010323489            2    5.6068779    869.93156   0.99318158 
   54200   0.79524349   -6.6187484    6.1320386 0.0094281035  0.010321603            4    5.6780872    866.83763   0.99672646 
   54300     0.841527   -6.5947963    6.1561791 0.0094477885  0.010319547            2    5.3329924    873.85251    0.9887252 
   54400    0.8189926   -6.5861907    6.1601989 0.0094365791  0.010317492            8    5.4845875    872.49135   0.99026769 
   54500   0.83035242   -6.5894631    6.1976915 0.0094765924  0.010315884            6    5.4631891    872.92285   0.98977819 
   54600   0.84557727   -6.5007526    6.2082282 0.0094753176  0.010314549            3    5.9544282    871.69536   0.99117196 
   54700    0.8502193   -6.5758824      6.21393 0.0094666818  0.010313054            8    5.6877177    870.85046    0.9921336 
   54800   0.84175859   -6.6384115    6.2223354 0.0094621887  0.010311559            9    5.4721364    867.84262   0.99557222 
   54900   0.82786527   -6.6434788    6.2853955 0.0095406731  0.010310275            9    5.1494042    873.33589   0.98931008 
   55000   0.83966158   -6.5429061     6.273129 0.0095047408  0.010309721            5    5.8447403    870.41121   0.99263428 
   55100   0.84443646    -6.510937    6.2768082 0.0094930553   0.01030899            1    5.9985003    871.29679   0.99162537 
   55200   0.84540234    -6.549106    6.2483452 0.0094328882   0.01030791            5    6.0477327    866.88921   0.99666716 
[...]
   89400       0.8227   -6.5750203    10.215046  0.009521855  0.010105803           12    5.7732844    869.16766   0.99405448 
   89500   0.82850325   -6.5804949    10.193538 0.0094911894  0.010104038            6    5.6420901    870.62378   0.99239192 
   89600   0.83519144    -6.585021     10.23089 0.0095153362  0.010102377            8    5.5218538    872.45502   0.99030893 
   89700    0.8221381   -6.6515287    10.202604 0.0094784499  0.010100586            7    5.2690594    870.42314   0.99262067 
   89800   0.73067748    -6.543098    10.143418 0.0094129716  0.010098329            6    6.1388607    864.95789   0.99889256 
   89900   0.83067666   -6.6150516    10.210712 0.0094648795  0.010096197            6    5.6191702     868.1189   0.99525537 
   90000   0.84649069   -6.6088439    10.302972 0.0095397891  0.010094442            3     5.395353    871.91018   0.99092776 
   90100   0.80977808    -6.652785    10.293054 0.0095200275  0.010092894            4    5.4801738    866.91176   0.99664122 
   90200    0.8323742   -6.6791664    10.385195 0.0095945998   0.01009148            9    4.9638979    873.40892   0.98922736 
   90300   0.82672378   -6.5831877    10.361961 0.0095625332  0.010090227            5    5.6476352    870.78301   0.99221045 
   90400   0.82938793   -6.5825348    10.442069  0.009625801  0.010089302            3    5.5473951    872.24215   0.99055061 
   90500   0.82967167   -6.5289697    10.471523  0.009642286  0.010088557            7    5.8126441    872.98687   0.98970561 
   90600   0.84299085   -6.6562139    10.459757 0.0096208214  0.010087753            9    5.3298684    869.76667   0.99336987 
   90700   0.83206777   -6.5893295    10.491661 0.0096395271  0.010086957            4     5.635007    870.06769   0.99302619 
   90800   0.83647812   -6.5725227      10.5716 0.0097022757   0.01008663            3    5.8028979    869.49793   0.99367689 
   90900   0.85910102   -6.5391104    10.647383 0.0097610772  0.010086839            4     6.079974    868.50705   0.99481058 
   91000    0.8352276   -6.5450045    10.644929 0.0097481035  0.010087258            4    6.0937635    867.49784   0.99596789 
   91100   0.84837747   -6.5934706    10.677152 0.0097668789  0.010087707            4    5.8947404    866.47063   0.99714862 
   91200   0.83530678   -6.5997332    10.720312 0.0097956068  0.010088326            7    5.8228927    867.01387   0.99652385 
   91300   0.85582784   -6.5636426    10.796975 0.0098548511  0.010089087            5    5.6534919    872.14335   0.99066283 
   91400   0.82269946   -6.5838967    10.768655 0.0098182488  0.010089919            5     5.547432    871.01455   0.99194669 
   91500   0.80733156   -6.5860888    10.759538 0.0097992148  0.010090409            7    5.7151328    869.07604   0.99415927 
   91600   0.84391979   -6.5440776     10.71121 0.0097445505  0.010090851            4    6.0590085     867.9069   0.99549848 
   91700   0.83591747   -6.5014093    10.675541 0.0097015096  0.010091129            5    6.6515025     862.7348    1.0014665 
   91800   0.83830509   -6.5731188    10.678861 0.0096939551  0.010091315            7     6.196591    863.70177    1.0003453 
   91900   0.88964881   -6.6035244    10.733729 0.0097331602  0.010091303            5    5.6642304    870.34783   0.99270656 
   92000   0.83315991   -6.5588328    10.779985 0.0097644795  0.010091575            4    5.7274471    871.36692   0.99154556 
   92100   0.81408927   -6.5762705    10.803656 0.0097752953  0.010091728            4    5.2471973    876.84858   0.98534687 
   92200   0.85111662   -6.6495258    10.801661 0.0097628891  0.010091808            2    5.1501936    872.97999   0.98971341 
   92300   0.78804853   -6.6055913    10.809219 0.0097591357  0.010091733            6    5.6374353    868.47419   0.99484821 
   92400   0.81290387   -6.5457158    10.851678 0.0097868665  0.010092028            3    5.6807435     872.5304   0.99022338 
   92500   0.84756015   -6.5366858    10.800259 0.0097299626    0.0100923            2     6.079992    868.16389    0.9952038 
   92600   0.81483549   -6.5904831    10.810519 0.0097286891  0.010092329            5    5.8867729    867.24884   0.99625386 
   92700   0.84882038   -6.6289611    10.817194 0.0097241941  0.010092253            8    5.4450283    869.47595   0.99370201 
   92800   0.80365362    -6.572287    10.849885 0.0097430721  0.010092199            6    5.6336367    870.89706   0.99208051 
   92900   0.85769787    -6.561415       10.834 0.0097183351  0.010092199            8    5.9637701    868.23518   0.99512208 
   93000   0.83171723   -6.5633538    10.792018 0.0096702666  0.010092073            8    6.1782972    864.50766   0.99941277 
   93100   0.86052482   -6.6158414    10.822559 0.0096872171  0.010091929           11    5.8742279    865.22433   0.99858496 
   93200   0.85803169   -6.5394819    10.918454 0.0097625664  0.010091945           10    5.7405862    872.56287   0.99018653 
   93300   0.81454945   -6.5600006    10.871494 0.0097101589  0.010091974           13    5.8261689    869.61413   0.99354411 
   93400   0.80647078   -6.5689651    10.924587 0.0097471332  0.010091907           12    5.6945603    870.42864    0.9926144 
   93500   0.87121945   -6.5631648    10.988765 0.0097939081  0.010092078           13    5.4233653    876.02631   0.98627175 
   93600   0.83484113   -6.5906118    10.920114 0.0097223238  0.010092179            7    5.5823094    870.73129   0.99226938 
   93700   0.83953249   -6.6369638    10.889354 0.0096845912  0.010091874            4    5.6462882    866.82272    0.9967436 
   93800    0.8243615   -6.6127558    10.821794 0.0096142447  0.010091312           11    6.0930306    861.82369    1.0025252 
   93900   0.81897561   -6.6476977    10.815072 0.0095980404  0.010090555           12    6.0715024    859.61299    1.0051035 
   94000   0.83366582    -6.608567    10.885385  0.009650164  0.010089877            4    5.4936467    870.71203   0.99229134 
   94100   0.81663407   -6.5839291    10.868754  0.009625181  0.010089118            3    6.0381905    865.13609   0.99868681 
   94200   0.85020256   -6.6195383    10.909709  0.009651193   0.01008851            6    5.6991702    867.71133   0.99572285 
   94300   0.80256803   -6.5653656    10.938116 0.0096660624  0.010087996           10    5.7646522    868.91359   0.99434513 
   94400   0.83128605   -6.6122117    10.941055 0.0096584171  0.010087452           10    5.4945707    870.23599   0.99283414 
   94500   0.81803821   -6.6033229    11.018291 0.0097163063  0.010086889            2    5.2725312    873.91169   0.98865824 
   94600   0.83845481   -6.6381724      11.0226  0.009709831  0.010086648            7    5.3103143    871.60889   0.99127029 
   94700   0.81494506   -6.5134092    11.015983 0.0096937544  0.010086273            4     5.881023    871.36794    0.9915444 
   94800   0.82909789   -6.5392605    11.070722 0.0097316474  0.010086095            6    5.6961705    873.14416   0.98952732 
   94900   0.81662633   -6.5806969    11.084427 0.0097334274  0.010086005            5    5.7059354     869.1352    0.9940916 
   95000   0.82191102   -6.6198394    11.094231 0.0097317813  0.010085878            4    5.6755265    867.20027   0.99630965 
   95100   0.82111202   -6.6369384    11.095148 0.0097223519  0.010085698            7     5.560061    867.62656   0.99582014 
   95200   0.82555081   -6.6015704    11.127296 0.0097402802  0.010085511            6    5.4244151    871.69675   0.99117039 
   95300    0.8251136   -6.5881046     11.14353 0.0097442546  0.010085481            8    5.7540761    868.55001   0.99476137 
   95400   0.80010454   -6.5728545    11.089966 0.0096872515  0.010085342            3    6.1571801    863.63772    1.0004195 
   95500   0.87352645   -6.6090099    11.119925 0.0097032504  0.010085099            6    5.6623014    868.10741   0.99526855 
   95600   0.82408566   -6.6302143    11.088421 0.0096656391  0.010084703           16    5.6789854    866.00487   0.99768493 
   95700   0.81540913    -6.624014    11.134034  0.009695258  0.010084195            8    5.4998347    868.56362   0.99474579 
   95800   0.81212311   -6.6563562    11.187418 0.0097315741  0.010083834            9    5.1430404    871.71425   0.99115049 
   95900    0.7864329   -6.6954521    11.160295 0.0096978578  0.010083261           12     5.165566    867.93483   0.99546644 
   96000   0.79425148   -6.6269747    11.223188 0.0097423508  0.010082857            5     5.327188    871.39595   0.99151253 
   96100   0.84143923   -6.6155597    11.201701 0.0097135802  0.010082619           16    5.7119482    867.04686   0.99648593 
   96200   0.80976494   -6.6085082    11.187745  0.009691394   0.01008244            3    5.9749066      863.542    1.0005304 
   96300   0.81303162   -6.5703054    11.184555 0.0096785696  0.010082118            4    6.1936824    863.57125    1.0004965 
   96400   0.83852585   -6.5762483    11.208448  0.009689184  0.010081919            7    5.9354829    867.33263   0.99615761 
   96500    0.8099051   -6.6128119    11.220274 0.0096893557  0.010081661            5    5.5810919    868.39596   0.99493784 
   96600   0.82190626    -6.667721    11.208043 0.0096687738  0.010081166            4    5.4716223    866.43996   0.99718392 
   96700   0.84435656   -6.5944849    11.234358  0.009681453  0.010080761            3     5.767693     867.5313   0.99592949 
   96800   0.81060844   -6.5855015    11.215179 0.0096549402  0.010080359           11    5.9222764    866.43813   0.99718603 
   96900   0.81367797   -6.6700136     11.20381 0.0096351996  0.010079701            3      5.81059    861.64634    1.0027316 
   97000   0.83802829   -6.6501298     11.25406  0.009668436  0.010079153            7    5.5122329    867.14931    0.9963682 
   97100   0.80441006   -6.6303853    11.276996 0.0096781635  0.010078657            5    5.5777743    867.54112   0.99591821 
   97200   0.81725594   -6.6678501    11.334677 0.0097176587  0.010078041            5    5.0170724    873.05313   0.98963049 
   97300    0.8110825   -6.5725842    11.354397  0.009724561  0.010077672            2    5.2264939    876.91287   0.98527463 
   97400   0.82109787    -6.532663    11.326702 0.0096908812  0.010077336            4    5.7506102      872.167   0.99063597 
   97500   0.80787079   -6.5501403    11.356188 0.0097061436  0.010076954            6    5.8834746    869.86573   0.99325674 
   97600   0.82354034   -6.6140242    11.392655 0.0097273351   0.01007668            8     5.407508    871.54157   0.99134686 
   97700   0.82002673   -6.6424422    11.416112 0.0097373869  0.010076498            4    5.1893633    872.71946   0.99000886 
   97800   0.83006697   -6.5592866    11.398325 0.0097122744  0.010076233            8    5.5152602     874.1161   0.98842705 
   97900   0.80133852   -6.5315198    11.369134 0.0096775061  0.010075852            2    5.7604343     871.3899   0.99151941 
   98000   0.82118246   -6.6045956    11.347393 0.0096491435  0.010075264           11    5.4827226    870.99103   0.99197348 
   98100   0.87029979   -6.5783285    11.346096 0.0096382055  0.010074528            9    5.4889208    873.72232   0.98887252 
   98200   0.82880408   -6.5050884    11.367169 0.0096462735  0.010073904            3     6.013493    870.95765    0.9920115 
   98300   0.79990411   -6.5744903    11.385108 0.0096516679  0.010073213           10    5.6697607    869.60448   0.99355514 
   98400   0.83453666   -6.6706564    11.389724 0.0096457685  0.010072435            2      5.22411    869.38608   0.99380474 
   98500   0.82392935   -6.6720179     11.34557  0.009598621  0.010071554            3    5.6731818    863.41976     1.000672 
   98600   0.84984487    -6.597718    11.403107 0.0096375144  0.010070775            3    5.7348504    867.82084   0.99559721 
   98700   0.81459281   -6.6017679    11.390028 0.0096167073  0.010070021            4    5.9461285    864.21543   0.99975072 
   98800   0.84952546   -6.6347026    11.428851 0.0096397192  0.010069423            3     5.890044    863.38897    1.0007077 
   98900    0.8146355    -6.589252     11.45736 0.0096539935  0.010068963            5    5.9160625    865.63518     0.998111 
   99000   0.84775256   -6.5508181    11.548766 0.0097211838  0.010068681            2    5.8529691    870.12033   0.99296611 
   99100   0.84967486    -6.618642    11.530181 0.0096957454   0.01006847            8    5.5028403    869.95801   0.99315138 
   99200   0.81389241   -6.5848615    11.524717 0.0096813817  0.010068159            2    6.1759934      862.788    1.0014048 
   99300   0.81812067   -6.6366368    11.505566 0.0096555607  0.010067863            4    6.0483796    860.98404    1.0035029 
   99400   0.86759719   -6.6258283    11.548083  0.009681491   0.01006758            3    5.9617286    863.33949    1.0007651 
   99500   0.86302855   -6.5543079       11.544 0.0096683416  0.010067422            6    6.2653295    864.08926    0.9998967 
   99600   0.88384638    -6.666102    11.516654 0.0096357549  0.010067019           10    5.4461432    868.02869   0.99535881 
   99700   0.81199626   -6.6325649    11.546923 0.0096513898   0.01006627           10    5.5259013    867.96296   0.99543419 
   99800   0.82821199   -6.5871679    11.523975 0.0096225575  0.010065507           12    5.8038049    868.54927   0.99476222 
   99900   0.83501051   -6.6182073    11.564296 0.0096465598  0.010064784           10    5.6866056    867.79617   0.99562551 
  100000   0.83559279   -6.6072217    11.555036 0.0096291966   0.01006417            4    5.9552536    864.66819   0.99922723 
  100100   0.83002309   -6.6463914    11.490275 0.0095656633  0.010063397            7    6.0727797    860.15972    1.0044646 
  100200   0.84939508   -6.5814363    11.527436 0.0095870222  0.010062559            7    6.0745091    864.21136   0.99975543 
  100300   0.84490822   -6.5847463    11.522698 0.0095735279  0.010061621            9    5.9854757    864.91158   0.99894604 
  100400   0.85540108   -6.7009063    11.530339 0.0095703345  0.010060609           17    5.5123616    863.84508    1.0001793 
  100500   0.79830287   -6.6745802    11.629108 0.0096427093   0.01005955           18    5.1824484    868.78088   0.99449702 
  100600   0.81799834   -6.6379497    11.580664 0.0095929952  0.010058668           17    5.6325265    866.41611   0.99721138 
  100700   0.83617511   -6.5781245     11.58209 0.0095846487  0.010057621           11    5.7631295    868.70279   0.99458643 
  100800   0.87224186   -6.5660974    11.599224 0.0095893054  0.010056784            7    5.8606989    869.22843   0.99398498 
  100900   0.82606228   -6.5577666    11.591451  0.009573382  0.010055927            6    6.1545103    864.79341   0.99908254 
  101000   0.81912815   -6.5853247    11.679513 0.0096365617  0.010055151            6    5.8886672    866.75774   0.99681833 
  101100   0.84838573    -6.546539    11.693383 0.0096384631  0.010054566            2    6.0085102    868.74386   0.99453941 
  101200   0.86072312   -6.5377194     11.77485 0.0096960225  0.010054353           10     5.921073    870.30979   0.99274995 
  101300   0.80986823   -6.5231865    11.737854 0.0096560165  0.010054013            7    6.1178251    868.46743   0.99485596 
  101400   0.85175157   -6.5461816    11.810877 0.0097065064  0.010053735            7    5.6997695    872.72511   0.99000245 
  101500   0.82457731   -6.5635351    11.824388 0.0097080365   0.01005352            5    5.4816103    873.64185   0.98896361 
  101600   0.82081571   -6.6164929    11.772652 0.0096560466  0.010053063           18     5.542927    869.43476   0.99374909 
  101700    0.8505656   -6.5932539    11.772652 0.0096465522  0.010052431            6     5.812004    868.19942   0.99516307 
  101800   0.85740506   -6.5660894    11.827113 0.0096816575  0.010052042            8    5.8404069     870.1943   0.99288171 
  101900   0.81933276   -6.5931734     11.80021 0.0096501552   0.01005167           31    5.7893096    867.79875   0.99562255 
  102000    0.8792798   -6.6114561    11.778648 0.0096230784  0.010051064           30    6.0269303    864.33935   0.99960739 
  102100    0.8647106    -6.595921    11.861904 0.0096816058  0.010050667           24    5.7524467    869.39011   0.99380013 
  102200   0.83395461   -6.6275418    11.852709 0.0096646353  0.010050337           19    5.7094957    866.57893   0.99702401 
  102300   0.80054362   -6.6368959    11.795966 0.0096089651   0.01004973           47    5.9654882    861.40715      1.00301 
  102400   0.83852791   -6.6359546    11.790504 0.0095951367  0.010048977           31    5.9953245    861.26665    1.0031736 
  102500   0.82125071   -6.6219943    11.824303 0.0096132541  0.010048174           20    5.8662395    864.17631   0.99979598 
  102600   0.84634052   -6.5844955    11.841666 0.0096179874  0.010047467           10    5.8347153    868.17915   0.99518631 
  102700   0.78025318   -6.6086268    11.861442  0.009624669  0.010046687            4    5.5422226    869.17392   0.99404731 
  102800   0.79507232   -6.6253271    11.922775  0.009665025  0.010045874            3    5.4887015    868.57064   0.99473774 
  102900   0.82392543   -6.6230683    11.908691 0.0096442262  0.010045275           12    5.6617079    866.88365   0.99667355 
  103000   0.84251839   -6.6245214    11.906353 0.0096329719  0.010044713           19    5.7887035    865.71216   0.99802225 
  103100   0.86823752   -6.6351188    11.885744 0.0096069709  0.010044046           19     5.892416    863.64576    1.0004102 
  103200   0.89583784   -6.6209573    11.856229 0.0095738286  0.010043312           18    5.9847936    863.81885    1.0002097 
  103300   0.85342531   -6.6126585    11.884521 0.0095873834  0.010042583           18    6.0317523    863.78201    1.0002524 
  103400   0.83139158   -6.6561279    11.813308 0.0095207189  0.010041605           31    6.1878746    857.28537    1.0078324 
  103500   0.86882664   -6.6474344     11.89504 0.0095773265  0.010040616           37    5.9895535    861.54513    1.0028494 
  103600    0.8223264   -6.6242259    11.955652 0.0096168374  0.010039777           14    5.6308256    867.04698    0.9964858 
  103700   0.83675754   -6.6404528    12.003327 0.0096458754  0.010039062           11    5.3192647    870.58901   0.99243155 
  103800   0.80569891   -6.5859289    11.998607 0.0096327929  0.010038364            9    5.7427628    867.93166   0.99547008 
  103900    0.8289756   -6.6201231    11.934858 0.0095723919  0.010037575            3    6.0132948    862.57063    1.0016571 
  104000   0.88757853   -6.6831636    12.019249 0.0096308083  0.010036813            5    5.4006401    867.32019    0.9961719 
Loop time of 189.791 on 12 procs for 100000 steps with 864 atoms

Performance: 91047.413 tau/day, 526.895 timesteps/s
99.4% CPU use with 12 MPI tasks x no OpenMP threads

MPI task timing breakdown:
Section |  min time  |  avg time  |  max time  |%varavg| %total
---------------------------------------------------------------
Pair    | 9.3952     | 10.297     | 10.845     |  12.9 |  5.43
Neigh   | 0.92721    | 0.96972    | 1.0235     |   3.0 |  0.51
Comm    | 7.6575     | 8.2694     | 9.2213     |  16.1 |  4.36
Output  | 1.9229     | 1.9239     | 1.931      |   0.2 |  1.01
Modify  | 166.26     | 166.48     | 166.74     |   1.1 | 87.72
Other   |            | 1.854      |            |       |  0.98

Nlocal:        72.0000 ave          74 max          68 min
Histogram: 1 0 0 2 0 0 3 0 4 2
Nghost:        1568.58 ave        1589 max        1554 min
Histogram: 1 2 3 0 2 2 0 0 0 2
Neighs:        8240.75 ave        8649 max        7361 min
Histogram: 1 0 0 0 1 2 1 2 2 3
FullNghs:      16485.8 ave       16883 max       15598 min
Histogram: 1 0 2 0 0 0 1 2 1 5

Total # of neighbors = 197829
Ave neighs/atom = 228.96875
Neighbor list builds = 5084
Dangerous builds = 0

#clear
#
#next RN
#
#jump SELF



Total wall time: 0:03:10
